# vtk DataFile Version 2.0
Generated by ludwig extract.c
ASCII
DATASET STRUCTURED_POINTS
DIMENSIONS 64 32 32
ORIGIN 0 0 0
SPACING 1 1 1
POINT_DATA 65536
VECTORS velocity_field float
 1.113705e-06 -2.797867e-10 -2.797867e-10
 1.114479e-06 -3.050539e-10 -3.050539e-10
 1.115636e-06 -3.288472e-10 -3.288472e-10
 1.116558e-06 -3.496231e-10 -3.496231e-10
 1.117844e-06 -3.662547e-10 -3.662547e-10
 1.118870e-06 -3.763502e-10 -3.763502e-10
 1.120221e-06 -3.783063e-10 -3.783063e-10
 1.121259e-06 -3.687034e-10 -3.687034e-10
 1.122554e-06 -3.454594e-10 -3.454594e-10
 1.123448e-06 -3.038895e-10 -3.038895e-10
 1.124488e-06 -2.409215e-10 -2.409214e-10
 1.124991e-06 -1.503694e-10 -1.503694e-10
 1.125484e-06 -3.096260e-11 -3.096263e-11
 1.125390e-06  3.558735e-11  3.558734e-11
 1.125486e-06  4.648338e-11  4.648339e-11
 1.125291e-06  2.522933e-11  2.522937e-11
 1.125467e-06  2.124936e-12  2.124925e-12
 1.125363e-06  7.491154e-12  7.491157e-12
 1.125470e-06  6.299708e-11  6.299711e-11
 1.125035e-06  1.629054e-10  1.629054e-10
 1.124601e-06  2.628036e-10  2.628036e-10
 1.123608e-06  3.318852e-10  3.318853e-10
 1.122744e-06  3.772394e-10  3.772394e-10
 1.121467e-06  4.032684e-10  4.032684e-10
 1.120438e-06  4.146181e-10  4.146181e-10
 1.119088e-06  4.138530e-10  4.138529e-10
 1.118058e-06  4.042614e-10  4.042614e-10
 1.116763e-06  3.877316e-10  3.877316e-10
 1.115830e-06  3.665983e-10  3.665983e-10
 1.114660e-06  3.421810e-10  3.421809e-10
 1.113871e-06  3.160090e-10  3.160090e-10
 1.112857e-06  2.889381e-10  2.889381e-10
 1.112228e-06  2.619031e-10  2.619032e-10
 1.111375e-06  2.354107e-10  2.354107e-10
 1.110902e-06  2.099867e-10  2.099867e-10
 1.110199e-06  1.858823e-10  1.858822e-10
 1.109869e-06  1.633522e-10  1.633522e-10
 1.109298e-06  1.424623e-10  1.424623e-10
 1.109090e-06  1.232920e-10  1.232920e-10
 1.108632e-06  1.057747e-10  1.057746e-10
 1.108527e-06  8.987793e-11  8.987790e-11
 1.108161e-06  7.544296e-11  7.544293e-11
 1.108140e-06  6.236717e-11  6.236720e-11
 1.107850e-06  5.042995e-11  5.042993e-11
 1.107899e-06  3.948509e-11  3.948506e-11
 1.107673e-06  2.927317e-11  2.927315e-11
 1.107781e-06  1.962284e-11  1.962286e-11
 1.107613e-06  1.025551e-11  1.025550e-11
 1.107776e-06  9.877723e-13  9.877758e-13
 1.107663e-06 -8.462581e-12 -8.462584e-12
 1.107883e-06 -1.827919e-11 -1.827920e-11
 1.107828e-06 -2.873204e-11 -2.873205e-11
 1.108112e-06 -3.999352e-11 -3.999350e-11
 1.108126e-06 -5.230444e-11 -5.230443e-11
 1.108484e-06 -6.581101e-11 -6.581103e-11
 1.108580e-06 -8.070360e-11 -8.070354e-11
 1.109030e-06 -9.708339e-11 -9.708331e-11
 1.109226e-06 -1.150606e-10 -1.150606e-10
 1.109786e-06 -1.346662e-10 -1.346662e-10
 1.110104e-06 -1.558864e-10 -1.558864e-10
 1.110794e-06 -1.786468e-10 -1.786468e-10
 1.111252e-06 -2.027439e-10 -2.027439e-10
 1.112092e-06 -2.279518e-10 -2.279518e-10
 1.112705e-06 -2.537792e-10 -2.537792e-10
 2.315753e-06 -8.943696e-10 -2.993483e-10
 2.317395e-06 -9.750214e-10 -3.262367e-10
 2.319490e-06 -1.050071e-09 -3.514815e-10
 2.321412e-06 -1.116720e-09 -3.743451e-10
 2.323751e-06 -1.168782e-09 -3.925962e-10
 2.325864e-06 -1.202353e-09 -4.050644e-10
 2.328320e-06 -1.208403e-09 -4.082322e-10
 2.330448e-06 -1.182032e-09 -4.003217e-10
 2.332787e-06 -1.111082e-09 -3.761794e-10
 2.334634e-06 -9.901810e-10 -3.326854e-10
 2.336488e-06 -8.048661e-10 -2.617453e-10
 2.337611e-06 -5.591768e-10 -1.577307e-10
 2.338444e-06 -2.116387e-10 -8.909157e-12
 2.338438e-06 -2.439082e-11  6.508825e-11
 2.338513e-06  2.165548e-11  6.721315e-11
 2.338296e-06 -1.724042e-11  2.695505e-11
 2.338483e-06 -5.952770e-11 -1.549437e-11
 2.338396e-06 -2.710080e-11 -2.104362e-11
 2.338427e-06  1.402463e-10  3.873370e-11
 2.337701e-06  4.326867e-10  1.596760e-10
 2.336709e-06  7.115440e-10  2.780929e-10
 2.334939e-06  9.099809e-10  3.570800e-10
 2.333149e-06  1.044810e-09  4.059155e-10
 2.330846e-06  1.126635e-09  4.335113e-10
 2.328734e-06  1.162626e-09  4.437769e-10
 2.326283e-06  1.164268e-09  4.419880e-10
 2.324162e-06  1.137333e-09  4.302748e-10
 2.321808e-06  1.090539e-09  4.121716e-10
 2.319865e-06  1.028331e-09  3.890647e-10
 2.317746e-06  9.567821e-10  3.632153e-10
 2.316076e-06  8.790426e-10  3.354962e-10
 2.314253e-06  7.990005e-10  3.072520e-10
 2.312890e-06  7.187027e-10  2.790175e-10
 2.311376e-06  6.404222e-10  2.515244e-10
 2.310315e-06  5.653400e-10  2.250841e-10
 2.309092e-06  4.946083e-10  2.000337e-10
 2.308307e-06  4.287556e-10  1.765314e-10
 2.307341e-06  3.681863e-10  1.546638e-10
 2.306794e-06  3.129526e-10  1.344801e-10
 2.306047e-06  2.629744e-10  1.159093e-10
 2.305699e-06  2.179694e-10  9.892251e-11
 2.305133e-06  1.775515e-10  8.334759e-11
 2.304949e-06  1.412124e-10  6.909950e-11
 2.304530e-06  1.083761e-10  5.594162e-11
 2.304482e-06  7.839326e-11  4.375172e-11
 2.304187e-06  5.058296e-11  3.225662e-11
 2.304254e-06  2.422224e-11  2.131241e-11
 2.304070e-06 -1.418254e-12  1.062821e-11
 2.304244e-06 -2.708892e-11  4.906492e-14
 2.304167e-06 -5.352813e-11 -1.071822e-11
 2.304450e-06 -8.147724e-11 -2.183014e-11
 2.304488e-06 -1.116479e-10 -3.356745e-11
 2.304894e-06 -1.447335e-10 -4.607857e-11
 2.305063e-06 -1.813747e-10 -5.961590e-11
 2.305615e-06 -2.221611e-10 -7.430668e-11
 2.305946e-06 -2.675993e-10 -9.035536e-11
 2.306674e-06 -3.180912e-10 -1.078447e-10
 2.307201e-06 -3.739298e-10 -1.269093e-10
 2.308145e-06 -4.352149e-10 -1.475551e-10
 2.308906e-06 -5.019270e-10 -1.698246e-10
 2.310104e-06 -5.736844e-10 -1.935918e-10
 2.311137e-06 -6.500277e-10 -2.187798e-10
 2.312624e-06 -7.298271e-10 -2.450384e-10
 2.313958e-06 -8.120280e-10 -2.721349e-10
 3.240849e-06 -1.906502e-09 -3.925688e-10
 3.243094e-06 -2.075502e-09 -4.285891e-10
 3.245837e-06 -2.232667e-09 -4.633764e-10
 3.248450e-06 -2.368144e-09 -4.945987e-10
 3.251514e-06 -2.473483e-09 -5.210583e-10
 3.254376e-06 -2.534205e-09 -5.388556e-10
 3.257586e-06 -2.539244e-09 -5.460096e-10
 3.260459e-06 -2.469063e-09 -5.364477e-10
 3.263504e-06 -2.310649e-09 -5.067258e-10
 3.265992e-06 -2.041084e-09 -4.466268e-10
 3.268385e-06 -1.655668e-09 -3.498502e-10
 3.269903e-06 -1.143258e-09 -2.035893e-10
 3.270990e-06 -5.077452e-10 -5.679397e-12
 3.271114e-06 -1.048077e-10  9.630917e-11
 3.271229e-06  3.265660e-11  9.264435e-11
 3.271015e-06  2.503787e-11  2.966115e-11
 3.271196e-06  9.278741e-12 -3.724017e-11
 3.271072e-06  1.247730e-10 -5.200886e-11
 3.270993e-06  4.873922e-10  2.904046e-11
 3.270032e-06  1.053119e-09  1.932690e-10
 3.268669e-06  1.596263e-09  3.543996e-10
 3.266390e-06  2.005841e-09  4.630676e-10
 3.263979e-06  2.296829e-09  5.313357e-10
 3.260982e-06  2.475005e-09  5.669423e-10
 3.258133e-06  2.560745e-09  5.800585e-10
 3.254928e-06  2.568422e-09  5.753908e-10
 3.252058e-06  2.517162e-09  5.588701e-10
 3.248975e-06  2.418956e-09  5.330814e-10
 3.246334e-06  2.288192e-09  5.018163e-10
 3.243559e-06  2.134004e-09  4.666390e-10
 3.241279e-06  1.966328e-09  4.298299e-10
 3.238896e-06  1.791515e-09  3.922939e-10
 3.237023e-06  1.615858e-09  3.553078e-10
 3.235050e-06  1.443357e-09  3.193545e-10
 3.233581e-06  1.277592e-09  2.850856e-10
 3.231997e-06  1.120729e-09  2.527052e-10
 3.230895e-06  9.744303e-10  2.224904e-10
 3.229656e-06  8.394996e-10  1.944542e-10
 3.228873e-06  7.162951e-10  1.686544e-10
 3.227926e-06  6.046507e-10  1.449702e-10
 3.227411e-06  5.040633e-10  1.233323e-10
 3.226705e-06  4.137003e-10  1.035225e-10
 3.226409e-06  3.325009e-10  8.539496e-11
 3.225901e-06  2.592039e-10  6.866667e-11
 3.225785e-06  1.924191e-10  5.314925e-11
 3.225444e-06  1.306408e-10  3.852001e-11
 3.225482e-06  7.230453e-11  2.456501e-11
 3.225288e-06  1.578726e-11  1.094066e-11
 3.225469e-06 -4.054405e-11 -2.580332e-12
 3.225417e-06 -9.833729e-11 -1.634494e-11
 3.225744e-06 -1.592095e-10 -3.058052e-11
 3.225844e-06 -2.247486e-10 -4.561999e-11
 3.226335e-06 -2.964655e-10 -6.167903e-11
 3.226613e-06 -3.757850e-10 -7.905870e-11
 3.227298e-06 -4.639904e-10 -9.794988e-11
 3.227791e-06 -5.621923e-10 -1.186015e-10
 3.228714e-06 -6.712702e-10 -1.411599e-10
 3.229469e-06 -7.917972e-10 -1.657834e-10
 3.230680e-06 -9.240239e-10 -1.925486e-10
 3.231749e-06 -1.067686e-09 -2.214685e-10
 3.233300e-06 -1.222121e-09 -2.525223e-10
 3.234733e-06 -1.385786e-09 -2.854825e-10
 3.236669e-06 -1.556734e-09 -3.201864e-10
 3.238503e-06 -1.731528e-09 -3.560053e-10
 3.977126e-06 -3.170834e-09 -4.978518e-10
 3.979795e-06 -3.447186e-09 -5.455057e-10
 3.982998e-06 -3.700716e-09 -5.910964e-10
 3.986102e-06 -3.919171e-09 -6.333954e-10
 3.989684e-06 -4.083356e-09 -6.684328e-10
 3.993079e-06 -4.176753e-09 -6.941133e-10
 3.996832e-06 -4.172898e-09 -7.040030e-10
 4.000237e-06 -4.051488e-09 -6.943690e-10
 4.003788e-06 -3.779596e-09 -6.540862e-10
 4.006728e-06 -3.341316e-09 -5.748722e-10
 4.009492e-06 -2.717701e-09 -4.426796e-10
 4.011289e-06 -1.937894e-09 -2.549116e-10
 4.012562e-06 -1.035865e-09 -1.292762e-11
 4.012795e-06 -4.090227e-10  1.153566e-10
 4.012958e-06 -1.194410e-10  1.117255e-10
 4.012759e-06 -2.655227e-11  3.162525e-11
 4.012927e-06  5.666380e-11 -5.359338e-11
 4.012763e-06  3.149113e-10 -7.303292e-11
 4.012585e-06  8.959384e-10  3.045683e-11
 4.011448e-06  1.732628e-09  2.371292e-10
 4.009819e-06  2.533876e-09  4.366595e-10
 4.007186e-06  3.183977e-09  5.812531e-10
 4.004341e-06  3.656723e-09  6.724177e-10
 4.000848e-06  3.960391e-09  7.213133e-10
 3.997473e-06  4.109865e-09  7.366641e-10
 3.993728e-06  4.136541e-09  7.302643e-10
 3.990322e-06  4.062020e-09  7.068109e-10
 3.986718e-06  3.912526e-09  6.728357e-10
 3.983582e-06  3.705568e-09  6.308982e-10
 3.980341e-06  3.460415e-09  5.850132e-10
 3.977630e-06  3.190093e-09  5.366830e-10
 3.974852e-06  2.907627e-09  4.881887e-10
 3.972623e-06  2.621836e-09  4.403701e-10
 3.970331e-06  2.340743e-09  3.943883e-10
 3.968578e-06  2.069665e-09  3.506660e-10
 3.966744e-06  1.812910e-09  3.096789e-10
 3.965425e-06  1.573078e-09  2.715817e-10
 3.963998e-06  1.351845e-09  2.364490e-10
 3.963056e-06  1.149809e-09  2.042621e-10
 3.961973e-06  9.668444e-10  1.748662e-10
 3.961344e-06  8.021315e-10  1.481251e-10
 3.960546e-06  6.543377e-10  1.237497e-10
 3.960174e-06  5.217001e-10  1.015305e-10
 3.959608e-06  4.021423e-10  8.110686e-11
 3.959448e-06  2.933336e-10  6.222358e-11
 3.959075e-06  1.927728e-10  4.447550e-11
 3.959095e-06  9.782103e-11  2.757595e-11
 3.958894e-06  5.769496e-12  1.109304e-11
 3.959079e-06 -8.614248e-11 -5.277133e-12
 3.959044e-06 -1.806668e-10 -2.197093e-11
 3.959399e-06 -2.805307e-10 -3.929159e-11
 3.959542e-06 -3.883754e-10 -5.765654e-11
 3.960088e-06 -5.067324e-10 -7.735223e-11
 3.960438e-06 -6.379531e-10 -9.875828e-11
 3.961213e-06 -7.841635e-10 -1.221321e-10
 3.961815e-06 -9.471755e-10 -1.477985e-10
 3.962869e-06 -1.128400e-09 -1.759633e-10
 3.963780e-06 -1.328749e-09 -2.068670e-10
 3.965173e-06 -1.548464e-09 -2.406060e-10
 3.966454e-06 -1.787106e-09 -2.772943e-10
 3.968248e-06 -2.043158e-09 -3.168260e-10
 3.969958e-06 -2.314276e-09 -3.591422e-10
 3.972207e-06 -2.596357e-09 -4.037628e-10
 3.974392e-06 -2.884472e-09 -4.503801e-10
 4.578060e-06 -4.474913e-09 -6.004397e-10
 4.581034e-06 -4.858388e-09 -6.596948e-10
 4.584570e-06 -5.209459e-09 -7.177836e-10
 4.588036e-06 -5.505900e-09 -7.707756e-10
 4.592000e-06 -5.727015e-09 -8.168842e-10
 4.595799e-06 -5.841267e-09 -8.495194e-10
 4.599960e-06 -5.822106e-09 -8.654071e-10
 4.603771e-06 -5.628351e-09 -8.527732e-10
 4.607705e-06 -5.233125e-09 -8.029909e-10
 4.610983e-06 -4.603075e-09 -6.982391e-10
 4.614020e-06 -3.749754e-09 -5.316846e-10
 4.616019e-06 -2.718569e-09 -3.028293e-10
 4.617431e-06 -1.599021e-09 -2.776437e-11
 4.617742e-06 -7.500864e-10  1.235454e-10
 4.617947e-06 -2.660271e-10  1.221974e-10
 4.617758e-06  2.263252e-12  3.231477e-11
 4.617921e-06  2.581067e-10 -6.439493e-11
 4.617722e-06  7.095817e-10 -8.419299e-11
 4.617472e-06  1.515849e-09  4.085112e-11
 4.616201e-06  2.582505e-09  2.815202e-10
 4.614376e-06  3.622712e-09  5.177675e-10
 4.611482e-06  4.496118e-09  6.947681e-10
 4.608312e-06  5.162302e-09  8.134142e-10
 4.604448e-06  5.597229e-09  8.753917e-10
 4.600671e-06  5.825867e-09  8.961073e-10
 4.596518e-06  5.874204e-09  8.854849e-10
 4.592708e-06  5.782717e-09  8.558097e-10
 4.588718e-06  5.579256e-09  8.115050e-10
 4.585216e-06  5.295398e-09  7.591016e-10
 4.581637e-06  4.952938e-09  7.009947e-10
 4.578617e-06  4.574393e-09  6.410584e-10
 4.575560e-06  4.175497e-09  5.806510e-10
 4.573082e-06  3.771043e-09  5.218584e-10
 4.570570e-06  3.371323e-09  4.653660e-10
 4.568624e-06  2.985091e-09  4.121430e-10
 4.566624e-06  2.618191e-09  3.624315e-10
 4.565163e-06  2.274926e-09  3.165539e-10
 4.563614e-06  1.957724e-09  2.744637e-10
 4.562569e-06  1.667729e-09  2.361344e-10
 4.561402e-06  1.404850e-09  2.013229e-10
 4.560703e-06  1.168043e-09  1.698181e-10
 4.559848e-06  9.554773e-10  1.412598e-10
 4.559432e-06  7.647057e-10  1.153571e-10
 4.558831e-06  5.928028e-10  9.168083e-11
 4.558645e-06  4.364719e-10  6.989156e-11
 4.558255e-06  2.921431e-10  4.950968e-11
 4.558264e-06  1.560486e-10  3.015753e-11
 4.558059e-06  2.429427e-11  1.132133e-11
 4.558247e-06 -1.070802e-10 -7.398648e-12
 4.558220e-06 -2.420382e-10 -2.652281e-11
 4.558592e-06 -3.844904e-10 -4.644816e-11
 4.558759e-06 -5.382300e-10 -6.767083e-11
 4.559338e-06 -7.068699e-10 -9.056380e-11
 4.559731e-06 -8.937624e-10 -1.155789e-10
 4.560560e-06 -1.101914e-09 -1.430541e-10
 4.561230e-06 -1.333871e-09 -1.733834e-10
 4.562366e-06 -1.591597e-09 -2.068581e-10
 4.563375e-06 -1.876295e-09 -2.437786e-10
 4.564886e-06 -2.188269e-09 -2.843528e-10
 4.566306e-06 -2.526597e-09 -3.286783e-10
 4.568262e-06 -2.889176e-09 -3.768139e-10
 4.570161e-06 -3.272000e-09 -4.284867e-10
 4.572624e-06 -3.669698e-09 -4.835383e-10
 4.575053e-06 -4.073879e-09 -5.410207e-10
 5.077091e-06 -5.823202e-09 -6.957780e-10
 5.080283e-06 -6.317425e-09 -7.681154e-10
 5.084068e-06 -6.765163e-09 -8.382285e-10
 5.087807e-06 -7.143005e-09 -9.046311e-10
 5.092072e-06 -7.416246e-09 -9.611496e-10
 5.096187e-06 -7.553558e-09 -1.005038e-09
 5.100679e-06 -7.507581e-09 -1.024824e-09
 5.104816e-06 -7.242427e-09 -1.011892e-09
 5.109059e-06 -6.711327e-09 -9.467376e-10
 5.112603e-06 -5.905548e-09 -8.168629e-10
 5.115851e-06 -4.839277e-09 -6.125809e-10
 5.118001e-06 -3.608719e-09 -3.486045e-10
 5.119514e-06 -2.316596e-09 -5.002017e-11
 5.119895e-06 -1.270891e-09  1.173878e-10
 5.120131e-06 -5.573397e-10  1.238007e-10
 5.119957e-06 -6.165730e-11  3.104139e-11
 5.120112e-06  4.235313e-10 -6.905864e-11
 5.119889e-06  1.110304e-09 -8.161610e-11
 5.119574e-06  2.125397e-09  6.053265e-11
 5.118203e-06  3.381895e-09  3.266661e-10
 5.116228e-06  4.616860e-09  5.941157e-10
 5.113132e-06  5.698755e-09  8.055778e-10
 5.109706e-06  6.540341e-09  9.489415e-10
 5.105542e-06  7.117527e-09  1.028918e-09
 5.101445e-06  7.428216e-09  1.053161e-09
 5.096962e-06  7.513268e-09  1.040563e-09
 5.092834e-06  7.408185e-09  1.000996e-09
 5.088540e-06  7.160174e-09  9.467258e-10
 5.084761e-06  6.801867e-09  8.814130e-10
 5.080929e-06  6.368236e-09  8.113246e-10
 5.077684e-06  5.883824e-09  7.384263e-10
 5.074430e-06  5.372688e-09  6.662626e-10
 5.071781e-06  4.851890e-09  5.959203e-10
 5.069123e-06  4.336644e-09  5.291258e-10
 5.067055e-06  3.837584e-09  4.663691e-10
 5.064952e-06  3.363184e-09  4.082702e-10
 5.063406e-06  2.918940e-09  3.549309e-10
 5.061789e-06  2.508396e-09  3.063573e-10
 5.060689e-06  2.133085e-09  2.623863e-10
 5.059478e-06  1.793015e-09  2.227007e-10
 5.058745e-06  1.486890e-09  1.870008e-10
 5.057865e-06  1.212381e-09  1.548453e-10
 5.057429e-06  9.663297e-10  1.258676e-10
 5.056815e-06  7.449320e-10  9.955978e-11
 5.056619e-06  5.438759e-10  7.550348e-11
 5.056223e-06  3.584790e-10  5.313507e-11
 5.056229e-06  1.837820e-10  3.198871e-11
 5.056022e-06  1.465771e-11  1.145918e-11
 5.056212e-06 -1.541164e-10 -8.947055e-12
 5.056188e-06 -3.277607e-10 -2.984328e-11
 5.056565e-06 -5.114265e-10 -5.171868e-11
 5.056740e-06 -7.100964e-10 -7.515719e-11
 5.057333e-06 -9.285069e-10 -1.006156e-10
 5.057743e-06 -1.171031e-09 -1.286248e-10
 5.058597e-06 -1.441570e-09 -1.596001e-10
 5.059299e-06 -1.743402e-09 -1.940127e-10
 5.060477e-06 -2.079011e-09 -2.322314e-10
 5.061539e-06 -2.449896e-09 -2.746538e-10
 5.063116e-06 -2.856288e-09 -3.215490e-10
 5.064617e-06 -3.296967e-09 -3.731803e-10
 5.066673e-06 -3.768717e-09 -4.295195e-10
 5.068690e-06 -4.266514e-09 -4.905845e-10
 5.071296e-06 -4.782299e-09 -5.557584e-10
 5.073890e-06 -5.306109e-09 -6.247242e-10
 5.495829e-06 -7.072509e-09 -7.912602e-10
 5.499183e-06 -7.667813e-09 -8.770209e-10
 5.503155e-06 -8.206562e-09 -9.627604e-10
 5.507114e-06 -8.652867e-09 -1.042806e-09
 5.511621e-06 -8.972259e-09 -1.115292e-09
 5.516005e-06 -9.113604e-09 -1.169184e-09
 5.520776e-06 -9.034242e-09 -1.196799e-09
 5.525195e-06 -8.677243e-09 -1.177542e-09
 5.529696e-06 -8.016955e-09 -1.096321e-09
 5.533460e-06 -7.039518e-09 -9.342481e-10
 5.536874e-06 -5.805331e-09 -6.937851e-10
 5.539139e-06 -4.415710e-09 -3.992325e-10
 5.540740e-06 -3.002706e-09 -8.886710e-11
 5.541186e-06 -1.770192e-09  9.197417e-11
 5.541469e-06 -8.111101e-10  1.120232e-10
 5.541309e-06 -4.117229e-11  2.752810e-11
 5.541461e-06  7.220165e-10 -6.342488e-11
 5.541198e-06  1.664416e-09 -6.064895e-11
 5.540822e-06  2.879357e-09  9.749126e-11
 5.539361e-06  4.273012e-09  3.780996e-10
 5.537269e-06  5.664978e-09  6.734172e-10
 5.534009e-06  6.910079e-09  9.177705e-10
 5.530372e-06  7.916554e-09  1.091193e-09
 5.525959e-06  8.620111e-09  1.187859e-09
 5.521586e-06  9.024827e-09  1.221411e-09
 5.516827e-06  9.147792e-09  1.203865e-09
 5.512427e-06  9.042066e-09  1.155848e-09
 5.507888e-06  8.750466e-09  1.086650e-09
 5.503884e-06  8.324448e-09  1.007927e-09
 5.499860e-06  7.799853e-09  9.225340e-10
 5.496448e-06  7.213100e-09  8.361282e-10
 5.493058e-06  6.590015e-09  7.502194e-10
 5.490297e-06  5.954638e-09  6.678169e-10
 5.487550e-06  5.324138e-09  5.896744e-10
 5.485413e-06  4.713004e-09  5.170708e-10
 5.483259e-06  4.131288e-09  4.502091e-10
 5.481677e-06  3.586350e-09  3.893692e-10
 5.480034e-06  3.082535e-09  3.343304e-10
 5.478918e-06  2.621942e-09  2.848524e-10
 5.477699e-06  2.204690e-09  2.405066e-10
 5.476964e-06  1.829302e-09  2.008953e-10
 5.476085e-06  1.492998e-09  1.654960e-10
 5.475653e-06  1.191942e-09  1.338516e-10
 5.475044e-06  9.214750e-10  1.053731e-10
 5.474853e-06  6.762907e-10  7.954800e-11
 5.474461e-06  4.506095e-10  5.572089e-11
 5.474469e-06  2.383075e-10  3.332409e-11
 5.474264e-06  3.304700e-11  1.165566e-11
 5.474452e-06 -1.716233e-10 -9.883604e-12
 5.474426e-06 -3.821590e-10 -3.200515e-11
 5.474799e-06 -6.049285e-10 -5.530298e-11
 5.474969e-06 -8.460969e-10 -8.045636e-11
 5.475556e-06 -1.111517e-09 -1.080201e-10
 5.475963e-06 -1.406584e-09 -1.386114e-10
 5.476815e-06 -1.736093e-09 -1.727337e-10
 5.477518e-06 -2.104042e-09 -2.109387e-10
 5.478703e-06 -2.513431e-09 -2.536867e-10
 5.479780e-06 -2.965997e-09 -3.014578e-10
 5.481381e-06 -3.461962e-09 -3.546572e-10
 5.482917e-06 -3.999600e-09 -4.135932e-10
 5.485021e-06 -4.575067e-09 -4.785259e-10
 5.487104e-06 -5.181492e-09 -5.492224e-10
 5.489794e-06 -5.809530e-09 -6.256174e-10
 5.492497e-06 -6.445273e-09 -7.064494e-10
 5.848746e-06 -8.239918e-09 -8.940627e-10
 5.852216e-06 -8.932165e-09 -9.977601e-10
 5.856340e-06 -9.551797e-09 -1.100465e-09
 5.860476e-06 -1.006283e-08 -1.201006e-09
 5.865198e-06 -1.041274e-08 -1.289216e-09
 5.869817e-06 -1.055438e-08 -1.358367e-09
 5.874843e-06 -1.042437e-08 -1.387872e-09
 5.879510e-06 -9.984356e-09 -1.361300e-09
 5.884238e-06 -9.199197e-09 -1.254356e-09
 5.888185e-06 -8.097533e-09 -1.058176e-09
 5.891733e-06 -6.742403e-09 -7.831688e-10
 5.894096e-06 -5.266071e-09 -4.695713e-10
 5.895781e-06 -3.758761e-09 -1.521338e-10
 5.896314e-06 -2.375638e-09  3.996057e-11
 5.896657e-06 -1.172034e-09  8.101778e-11
 5.896530e-06 -1.056285e-10  2.248321e-11
 5.896663e-06  9.586697e-10 -4.135514e-11
 5.896350e-06  2.157782e-09 -1.396045e-11
 5.895891e-06  3.538141e-09  1.589045e-10
 5.894342e-06  5.041433e-09  4.494792e-10
 5.892146e-06  6.526445e-09  7.631474e-10
 5.888751e-06  7.894011e-09  1.039534e-09
 5.884935e-06  9.022389e-09  1.244235e-09
 5.880302e-06  9.848336e-09  1.365398e-09
 5.875688e-06  1.033781e-08  1.407574e-09
 5.870677e-06  1.051746e-08  1.391191e-09
 5.866043e-06  1.041917e-08  1.330423e-09
 5.861284e-06  1.010396e-08  1.246698e-09
 5.857098e-06  9.619535e-09  1.148221e-09
 5.852917e-06  9.019035e-09  1.045887e-09
 5.849384e-06  8.339837e-09  9.416784e-10
 5.845899e-06  7.617909e-09  8.404897e-10
 5.843071e-06  6.878914e-09  7.433413e-10
 5.840281e-06  6.145503e-09  6.525621e-10
 5.838119e-06  5.433851e-09  5.686040e-10
 5.835955e-06  4.756714e-09  4.921301e-10
 5.834375e-06  4.122517e-09  4.230008e-10
 5.832744e-06  3.536635e-09  3.609478e-10
 5.831647e-06  3.001617e-09  3.055707e-10
 5.830450e-06  2.517715e-09  2.563275e-10
 5.829740e-06  2.083251e-09  2.127212e-10
 5.828887e-06  1.694956e-09  1.741246e-10
 5.828479e-06  1.348281e-09  1.399797e-10
 5.827891e-06  1.037681e-09  1.095884e-10
 5.827718e-06  7.568418e-10  8.232263e-11
 5.827339e-06  4.988983e-10  5.741161e-11
 5.827356e-06  2.566002e-10  3.416975e-11
 5.827154e-06  2.246414e-11  1.178135e-11
 5.827340e-06 -2.111163e-10 -1.046862e-11
 5.827306e-06 -4.517517e-10 -3.340519e-11
 5.827667e-06 -7.069604e-10 -5.773965e-11
 5.827820e-06 -9.840379e-10 -8.426737e-11
 5.828386e-06 -1.289926e-09 -1.136620e-10
 5.828769e-06 -1.631037e-09 -1.466525e-10
 5.829595e-06 -2.013059e-09 -1.838512e-10
 5.830274e-06 -2.440719e-09 -2.259093e-10
 5.831435e-06 -2.917523e-09 -2.733866e-10
 5.832493e-06 -3.445451e-09 -3.268710e-10
 5.834080e-06 -4.024604e-09 -3.868624e-10
 5.835612e-06 -4.652897e-09 -4.538679e-10
 5.837724e-06 -5.325441e-09 -5.281425e-10
 5.839828e-06 -6.034476e-09 -6.099815e-10
 5.842559e-06 -6.767858e-09 -6.987307e-10
 5.845324e-06 -7.510323e-09 -7.941930e-10
 6.145864e-06 -9.174055e-09 -1.014842e-09
 6.149424e-06 -9.941420e-09 -1.139098e-09
 6.153667e-06 -1.062479e-08 -1.266863e-09
 6.157968e-06 -1.117267e-08 -1.388769e-09
 6.162880e-06 -1.153582e-08 -1.499262e-09
 6.167726e-06 -1.164825e-08 -1.577951e-09
 6.172984e-06 -1.146324e-08 -1.608611e-09
 6.177882e-06 -1.093137e-08 -1.563297e-09
 6.182807e-06 -1.005637e-08 -1.426310e-09
 6.186910e-06 -8.867491e-09 -1.194815e-09
 6.190572e-06 -7.464189e-09 -8.966859e-10
 6.193030e-06 -5.936404e-09 -5.715762e-10
 6.194818e-06 -4.374348e-09 -2.486213e-10
 6.195457e-06 -2.859764e-09 -4.383138e-11
 6.195896e-06 -1.437775e-09  2.805618e-11
 6.195805e-06 -7.839208e-11  1.618554e-11
 6.195919e-06  1.282802e-09  8.401925e-13
 6.195523e-06  2.709774e-09  6.263564e-11
 6.194961e-06  4.232505e-09  2.524914e-10
 6.193305e-06  5.802263e-09  5.517138e-10
 6.191006e-06  7.343607e-09  8.777600e-10
 6.187492e-06  8.761547e-09  1.176422e-09
 6.183520e-06  9.973219e-09  1.413966e-09
 6.178695e-06  1.088223e-08  1.562935e-09
 6.173856e-06  1.145714e-08  1.623401e-09
 6.168618e-06  1.168879e-08  1.607579e-09
 6.163757e-06  1.161985e-08  1.540240e-09
 6.158805e-06  1.129241e-08  1.436397e-09
 6.154449e-06  1.077122e-08  1.317445e-09
 6.150143e-06  1.010638e-08  1.190551e-09
 6.146514e-06  9.350319e-09  1.065640e-09
 6.142969e-06  8.540304e-09  9.440095e-10
 6.140108e-06  7.710287e-09  8.296409e-10
 6.137309e-06  6.884652e-09  7.231432e-10
 6.135156e-06  6.083566e-09  6.259858e-10
 6.133018e-06  5.321064e-09  5.380065e-10
 6.131473e-06  4.607278e-09  4.591223e-10
 6.129886e-06  3.948466e-09  3.888286e-10
 6.128838e-06  3.347755e-09  3.265997e-10
 6.127693e-06  2.805545e-09  2.717821e-10
 6.127033e-06  2.319930e-09  2.237441e-10
 6.126226e-06  1.887133e-09  1.817370e-10
 6.125860e-06  1.501875e-09  1.450531e-10
 6.125308e-06  1.157731e-09  1.128434e-10
 6.125164e-06  8.474350e-10  8.432248e-11
 6.124806e-06  5.631453e-10  5.857260e-11
 6.124836e-06  2.966362e-10  3.476454e-11
 6.124638e-06  3.946195e-11  1.195136e-11
 6.124821e-06 -2.169362e-10 -1.071335e-11
 6.124775e-06 -4.811240e-10 -3.418110e-11
 6.125116e-06 -7.615879e-10 -5.929944e-11
 6.125242e-06 -1.066611e-09 -8.700353e-11
 6.125773e-06 -1.404131e-09 -1.181197e-10
 6.126115e-06 -1.781536e-09 -1.535306e-10
 6.126895e-06 -2.205419e-09 -1.940021e-10
 6.127524e-06 -2.681276e-09 -2.403247e-10
 6.128635e-06 -3.213174e-09 -2.931878e-10
 6.129643e-06 -3.803364e-09 -3.532951e-10
 6.131186e-06 -4.451897e-09 -4.212858e-10
 6.132680e-06 -5.156141e-09 -4.977477e-10
 6.134765e-06 -5.910492e-09 -5.832575e-10
 6.136857e-06 -6.705470e-09 -6.779466e-10
 6.139593e-06 -7.527946e-09 -7.821943e-10
 6.142387e-06 -8.358539e-09 -8.945503e-10
 6.394350e-06 -9.872518e-09 -1.160589e-09
 6.397975e-06 -1.069459e-08 -1.314372e-09
 6.402332e-06 -1.141245e-08 -1.469061e-09
 6.406779e-06 -1.197712e-08 -1.619839e-09
 6.411887e-06 -1.232372e-08 -1.746914e-09
 6.416945e-06 -1.240120e-08 -1.834791e-09
 6.422432e-06 -1.215238e-08 -1.853748e-09
 6.427536e-06 -1.156306e-08 -1.783932e-09
 6.432636e-06 -1.063599e-08 -1.613432e-09
 6.436868e-06 -9.437924e-09 -1.357478e-09
 6.440640e-06 -8.033153e-09 -1.045683e-09
 6.443210e-06 -6.514490e-09 -7.129210e-10
 6.445127e-06 -4.922792e-09 -3.832925e-10
 6.445909e-06 -3.325914e-09 -1.586219e-10
 6.446462e-06 -1.726599e-09 -4.323875e-11
 6.446427e-06 -1.296006e-10  9.750058e-12
 6.446504e-06  1.471608e-09  6.030759e-11
 6.446006e-06  3.082800e-09  1.691101e-10
 6.445307e-06  4.696848e-09  3.825527e-10
 6.443520e-06  6.306032e-09  6.921218e-10
 6.441102e-06  7.846460e-09  1.027832e-09
 6.437471e-06  9.271663e-09  1.340727e-09
 6.433365e-06  1.049484e-08  1.601660e-09
 6.428365e-06  1.145400e-08  1.781952e-09
 6.423325e-06  1.208313e-08  1.865278e-09
 6.417862e-06  1.237660e-08  1.861238e-09
 6.412791e-06  1.234388e-08  1.786570e-09
 6.407642e-06  1.203705e-08  1.668873e-09
 6.403134e-06  1.150396e-08  1.522869e-09
 6.398709e-06  1.080900e-08  1.369626e-09
 6.395009e-06  1.000217e-08  1.215441e-09
 6.391424e-06  9.132894e-09  1.069390e-09
 6.388556e-06  8.236850e-09  9.324268e-10
 6.385772e-06  7.344557e-09  8.072127e-10
 6.383658e-06  6.477654e-09  6.934463e-10
 6.381572e-06  5.652911e-09  5.913028e-10
 6.380094e-06  4.881812e-09  5.003015e-10
 6.378581e-06  4.171717e-09  4.198477e-10
 6.377609e-06  3.526221e-09  3.492963e-10
 6.376539e-06  2.945705e-09  2.878340e-10
 6.375951e-06  2.427887e-09  2.346756e-10
 6.375210e-06  1.968319e-09  1.888647e-10
 6.374901e-06  1.560897e-09  1.494743e-10
 6.374396e-06  1.198311e-09  1.154333e-10
 6.374289e-06  8.724196e-10  8.574560e-11
 6.373959e-06  5.745605e-10  5.930439e-11
 6.374005e-06  2.957568e-10  3.510909e-11
 6.373813e-06  2.687190e-11  1.206298e-11
 6.373991e-06 -2.413067e-10 -1.082242e-11
 6.373932e-06 -5.179958e-10 -3.463667e-11
 6.374247e-06 -8.123654e-10 -6.037887e-11
 6.374337e-06 -1.133442e-09 -8.915092e-11
 6.374823e-06 -1.489980e-09 -1.219718e-10
 6.375109e-06 -1.890240e-09 -1.599340e-10
 6.375825e-06 -2.341704e-09 -2.040295e-10
 6.376383e-06 -2.850698e-09 -2.552647e-10
 6.377418e-06 -3.421958e-09 -3.145268e-10
 6.378350e-06 -4.058142e-09 -3.826819e-10
 6.379819e-06 -4.759317e-09 -4.605024e-10
 6.381246e-06 -5.522453e-09 -5.487457e-10
 6.383275e-06 -6.340804e-09 -6.480013e-10
 6.385327e-06 -7.203692e-09 -7.589576e-10
 6.388043e-06 -8.095135e-09 -8.814644e-10
 6.390839e-06 -8.994601e-09 -1.016207e-09
 6.599453e-06 -1.016238e-08 -1.341885e-09
 6.603144e-06 -1.099493e-08 -1.527330e-09
 6.607602e-06 -1.171016e-08 -1.716720e-09
 6.612210e-06 -1.224770e-08 -1.890411e-09
 6.617505e-06 -1.255614e-08 -2.034010e-09
 6.622783e-06 -1.257647e-08 -2.116859e-09
 6.628478e-06 -1.228305e-08 -2.117775e-09
 6.633770e-06 -1.166009e-08 -2.018397e-09
 6.639011e-06 -1.074568e-08 -1.824958e-09
 6.643367e-06 -9.577787e-09 -1.554728e-09
 6.647258e-06 -8.230301e-09 -1.234186e-09
 6.649971e-06 -6.748349e-09 -8.956908e-10
 6.652052e-06 -5.178216e-09 -5.524404e-10
 6.653005e-06 -3.532842e-09 -2.966230e-10
 6.653695e-06 -1.830842e-09 -1.240156e-10
 6.653718e-06 -8.535130e-11  3.401349e-12
 6.653755e-06  1.665254e-09  1.294255e-10
 6.653135e-06  3.381504e-09  2.976034e-10
 6.652272e-06  5.047469e-09  5.456683e-10
 6.650321e-06  6.640611e-09  8.720907e-10
 6.647756e-06  8.146914e-09  1.216523e-09
 6.643997e-06  9.517332e-09  1.539756e-09
 6.639759e-06  1.070953e-08  1.815213e-09
 6.634613e-06  1.165190e-08  2.017437e-09
 6.629385e-06  1.230731e-08  2.128577e-09
 6.623718e-06  1.263714e-08  2.141462e-09
 6.618430e-06  1.265452e-08  2.072238e-09
 6.613094e-06  1.238129e-08  1.939851e-09
 6.608423e-06  1.187296e-08  1.773359e-09
 6.603889e-06  1.117887e-08  1.586932e-09
 6.600117e-06  1.035943e-08  1.401372e-09
 6.596507e-06  9.462156e-09  1.222889e-09
 6.593644e-06  8.531163e-09  1.059038e-09
 6.590898e-06  7.598781e-09  9.094079e-10
 6.588844e-06  6.691481e-09  7.747771e-10
 6.586839e-06  5.828327e-09  6.545102e-10
 6.585454e-06  5.022869e-09  5.481661e-10
 6.584041e-06  4.283414e-09  4.550340e-10
 6.583170e-06  3.613828e-09  3.742891e-10
 6.582198e-06  3.014258e-09  3.049344e-10
 6.581700e-06  2.481808e-09  2.458778e-10
 6.581038e-06  2.011254e-09  1.958414e-10
 6.580798e-06  1.595677e-09  1.535618e-10
 6.580349e-06  1.227017e-09  1.176599e-10
 6.580285e-06  8.965085e-10  8.686190e-11
 6.579985e-06  5.949998e-10  5.982763e-11
 6.580050e-06  3.131584e-10  3.535999e-11
 6.579865e-06  4.159382e-11  1.220073e-11
 6.580039e-06 -2.291029e-10 -1.078527e-11
 6.579962e-06 -5.083426e-10 -3.482960e-11
 6.580249e-06 -8.055395e-10 -6.109236e-11
 6.580298e-06 -1.130066e-09 -9.086327e-11
 6.580730e-06 -1.491157e-09 -1.253943e-10
 6.580950e-06 -1.897706e-09 -1.660520e-10
 6.581588e-06 -2.357962e-09 -2.141451e-10
 6.582057e-06 -2.879094e-09 -2.710168e-10
 6.582996e-06 -3.466656e-09 -3.378821e-10
 6.583827e-06 -4.123946e-09 -4.158871e-10
 6.585195e-06 -4.851338e-09 -5.060176e-10
 6.586528e-06 -5.645559e-09 -6.091542e-10
 6.588474e-06 -6.499049e-09 -7.261116e-10
 6.590462e-06 -7.399030e-09 -8.573906e-10
 6.593137e-06 -8.327478e-09 -1.003949e-09
 6.595923e-06 -9.258921e-09 -1.165069e-09
 6.765096e-06 -1.002302e-08 -1.561507e-09
 6.768856e-06 -1.082493e-08 -1.783158e-09
 6.773442e-06 -1.149310e-08 -1.998994e-09
 6.778207e-06 -1.197940e-08 -2.195198e-09
 6.783704e-06 -1.222836e-08 -2.339942e-09