# vtk DataFile Version 2.0
Generated by ludwig extract.c
ASCII
DATASET STRUCTURED_POINTS
DIMENSIONS 64 32 32
ORIGIN 0 0 0
SPACING 1 1 1
POINT_DATA 65536
VECTORS velocity_field float
 1.113781e-06 -2.898297e-10 -2.898298e-10
 1.114531e-06 -3.154475e-10 -3.154476e-10
 1.115699e-06 -3.396101e-10 -3.396101e-10
 1.116595e-06 -3.607960e-10 -3.607960e-10
 1.117892e-06 -3.778593e-10 -3.778594e-10
 1.118890e-06 -3.884472e-10 -3.884472e-10
 1.120251e-06 -3.909286e-10 -3.909286e-10
 1.121261e-06 -3.819447e-10 -3.819447e-10
 1.122565e-06 -3.593744e-10 -3.593744e-10
 1.123431e-06 -3.186206e-10 -3.186206e-10
 1.124482e-06 -2.565583e-10 -2.565583e-10
 1.124960e-06 -1.671389e-10 -1.671388e-10
 1.125466e-06 -4.901419e-11 -4.901419e-11
 1.125352e-06  1.572843e-11  1.572842e-11
 1.125468e-06  2.487128e-11  2.487124e-11
 1.125259e-06  2.307609e-12  2.307612e-12
 1.125460e-06 -2.063945e-11 -2.063942e-11
 1.125339e-06 -1.281596e-11 -1.281597e-11
 1.125453e-06  4.935100e-11  4.935101e-11
 1.124957e-06  1.625059e-10  1.625059e-10
 1.124494e-06  2.541847e-10  2.541847e-10
 1.123454e-06  3.174940e-10  3.174939e-10
 1.122595e-06  3.591123e-10  3.591123e-10
 1.121295e-06  3.823305e-10  3.823306e-10
 1.120288e-06  3.918539e-10  3.918539e-10
 1.118928e-06  3.897907e-10  3.897907e-10
 1.117931e-06  3.795418e-10  3.795419e-10
 1.116633e-06  3.627299e-10  3.627299e-10
 1.115736e-06  3.417351e-10  3.417352e-10
 1.114566e-06  3.177042e-10  3.177043e-10
 1.113814e-06  2.921754e-10  2.921754e-10
 1.112799e-06  2.658979e-10  2.658979e-10
 1.112206e-06  2.397932e-10  2.397932e-10
 1.111350e-06  2.143099e-10  2.143099e-10
 1.110912e-06  1.899476e-10  1.899475e-10
 1.110203e-06  1.669329e-10  1.669329e-10
 1.109904e-06  1.454854e-10  1.454854e-10
 1.109325e-06  1.256716e-10  1.256716e-10
 1.109147e-06  1.075294e-10  1.075294e-10
 1.108678e-06  9.101110e-11  9.101113e-11
 1.108599e-06  7.603833e-11  7.603833e-11
 1.108221e-06  6.248512e-11  6.248507e-11
 1.108224e-06  5.019963e-11  5.019959e-11
 1.107920e-06  3.900414e-11  3.900416e-11
 1.107992e-06  2.870163e-11  2.870162e-11
 1.107750e-06  1.908253e-11  1.908254e-11
 1.107880e-06  9.924169e-12  9.924149e-12
 1.107695e-06  1.001470e-12  1.001473e-12
 1.107879e-06 -7.919335e-12 -7.919276e-12
 1.107748e-06 -1.706534e-11 -1.706529e-11
 1.107988e-06 -2.666843e-11 -2.666847e-11
 1.107915e-06 -3.694508e-11 -3.694510e-11
 1.108217e-06 -4.811199e-11 -4.811204e-11
 1.108212e-06 -6.036034e-11 -6.036038e-11
 1.108589e-06 -7.387529e-11 -7.387528e-11
 1.108666e-06 -8.880349e-11 -8.880351e-11
 1.109133e-06 -1.052786e-10 -1.052786e-10
 1.109309e-06 -1.233750e-10 -1.233750e-10
 1.109886e-06 -1.431480e-10 -1.431480e-10
 1.110183e-06 -1.645573e-10 -1.645572e-10
 1.110889e-06 -1.875442e-10 -1.875442e-10
 1.111325e-06 -2.118893e-10 -2.118894e-10
 1.112179e-06 -2.373736e-10 -2.373736e-10
 1.112769e-06 -2.635007e-10 -2.635008e-10
 2.315907e-06 -8.817772e-10 -3.082851e-10
 2.317518e-06 -9.606486e-10 -3.354763e-10
 2.319618e-06 -1.033871e-09 -3.610514e-10
 2.321507e-06 -1.098671e-09 -3.842955e-10
 2.323849e-06 -1.148922e-09 -4.029609e-10
 2.325926e-06 -1.180746e-09 -4.159128e-10
 2.328382e-06 -1.185208e-09 -4.196204e-10
 2.330474e-06 -1.157425e-09 -4.123487e-10
 2.332813e-06 -1.085386e-09 -3.889486e-10
 2.334624e-06 -9.637012e-10 -3.463414e-10
 2.336481e-06 -7.781351e-10 -2.764867e-10
 2.337572e-06 -5.326422e-10 -1.737942e-10
 2.338414e-06 -1.859736e-10 -2.664742e-11
 2.338385e-06 -7.085720e-13  4.504259e-11
 2.338481e-06  4.293213e-11  4.464531e-11
 2.338252e-06  3.404652e-12  2.687482e-12
 2.338467e-06 -3.712963e-11 -3.984347e-11
 2.338362e-06  3.291003e-12 -4.193672e-11
 2.338391e-06  1.833269e-10  2.622704e-11
 2.337569e-06  5.164956e-10  1.665576e-10
 2.336506e-06  7.683991e-10  2.724527e-10
 2.334667e-06  9.561806e-10  3.441522e-10
 2.332869e-06  1.080048e-09  3.878360e-10
 2.330538e-06  1.153928e-09  4.121020e-10
 2.328453e-06  1.183184e-09  4.199768e-10
 2.325999e-06  1.179988e-09  4.167737e-10
 2.323923e-06  1.149134e-09  4.041717e-10
 2.321580e-06  1.099677e-09  3.857889e-10
 2.319689e-06  1.035445e-09  3.627282e-10
 2.317585e-06  9.626517e-10  3.372939e-10
 2.315969e-06  8.840528e-10  3.101803e-10
 2.314162e-06  8.035822e-10  2.827552e-10
 2.312851e-06  7.230479e-10  2.554370e-10
 2.311349e-06  6.447280e-10  2.289749e-10
 2.310337e-06  5.696674e-10  2.035966e-10
 2.309121e-06  4.990104e-10  1.796609e-10
 2.308379e-06  4.332144e-10  1.572560e-10
 2.307416e-06  3.726753e-10  1.365000e-10
 2.306907e-06  3.174155e-10  1.173762e-10
 2.306158e-06  2.673505e-10  9.985597e-11
 2.305844e-06  2.221937e-10  8.384325e-11
 2.305271e-06  1.815602e-10  6.922020e-11
 2.305117e-06  1.449525e-10  5.583113e-11
 2.304689e-06  1.118007e-10  4.350339e-11
 2.304667e-06  8.147491e-11  3.204150e-11
 2.304360e-06  5.330402e-11  2.124346e-11
 2.304451e-06  2.658810e-11  1.089060e-11
 2.304253e-06  6.097206e-13  7.673584e-13
 2.304449e-06 -2.535729e-11 -9.355259e-12
 2.304355e-06 -5.203933e-11 -1.969445e-11
 2.304659e-06 -8.015466e-11 -3.047806e-11
 2.304679e-06 -1.104042e-10 -4.191289e-11
 2.305104e-06 -1.434606e-10 -5.421366e-11
 2.305255e-06 -1.799564e-10 -6.756448e-11
 2.305825e-06 -2.204642e-10 -8.215077e-11
 2.306135e-06 -2.654852e-10 -9.811729e-11
 2.306881e-06 -3.154096e-10 -1.155956e-10
 2.307385e-06 -3.705290e-10 -1.346711e-10
 2.308344e-06 -4.309369e-10 -1.553872e-10
 2.309082e-06 -4.966166e-10 -1.777499e-10
 2.310293e-06 -5.671873e-10 -2.016582e-10
 2.311300e-06 -6.421972e-10 -2.270128e-10
 2.312798e-06 -7.205260e-10 -2.534758e-10
 2.314104e-06 -8.011328e-10 -2.808071e-10
 3.241063e-06 -1.906841e-09 -3.998328e-10
 3.243273e-06 -2.074708e-09 -4.360607e-10
 3.246016e-06 -2.230785e-09 -4.710912e-10
 3.248591e-06 -2.365284e-09 -5.026246e-10
 3.251652e-06 -2.469801e-09 -5.294399e-10
 3.254472e-06 -2.529963e-09 -5.476974e-10
 3.257677e-06 -2.534754e-09 -5.553804e-10
 3.260507e-06 -2.464801e-09 -5.465164e-10
 3.263547e-06 -2.307122e-09 -5.176102e-10
 3.265993e-06 -2.039045e-09 -4.586143e-10
 3.268384e-06 -1.655824e-09 -3.631702e-10
 3.269866e-06 -1.146598e-09 -2.187415e-10
 3.270959e-06 -5.149199e-10 -2.305065e-11
 3.271057e-06 -1.176625e-10  7.561442e-11
 3.271193e-06  1.472924e-11  6.866405e-11
 3.270968e-06  4.745902e-12  3.305765e-12
 3.271177e-06 -7.100425e-12 -6.286753e-11
 3.271030e-06  1.196205e-10 -7.258926e-11
 3.270935e-06  5.070568e-10  2.103035e-11
 3.269865e-06  1.121845e-09  2.085875e-10
 3.268415e-06  1.635862e-09  3.559967e-10
 3.266049e-06  2.023093e-09  4.539973e-10
 3.263621e-06  2.295175e-09  5.148494e-10
 3.260592e-06  2.456432e-09  5.449888e-10
 3.257770e-06  2.529494e-09  5.547853e-10
 3.254569e-06  2.527239e-09  5.477689e-10
 3.251750e-06  2.469205e-09  5.300275e-10
 3.248688e-06  2.366332e-09  5.035682e-10
 3.246110e-06  2.233124e-09  4.722962e-10
 3.243362e-06  2.077965e-09  4.374319e-10
 3.241147e-06  1.910745e-09  4.013108e-10
 3.238791e-06  1.737302e-09  3.646409e-10
 3.236981e-06  1.563828e-09  3.287142e-10
 3.235032e-06  1.393989e-09  2.939121e-10
 3.233620e-06  1.231258e-09  2.608725e-10
 3.232053e-06  1.077594e-09  2.297591e-10
 3.231003e-06  9.345728e-10  2.008161e-10
 3.229773e-06  8.028768e-10  1.740556e-10
 3.229036e-06  6.828021e-10  1.494897e-10
 3.228092e-06  5.741206e-10  1.270223e-10
 3.227615e-06  4.762916e-10  1.065295e-10
 3.226908e-06  3.884600e-10  8.783572e-11
 3.226645e-06  3.095490e-10  7.073454e-11
 3.226131e-06  2.383004e-10  5.499735e-11
 3.226045e-06  1.733243e-10  4.037135e-11
 3.225693e-06  1.131350e-10  2.659633e-11
 3.225757e-06  5.617914e-11  1.339242e-11
 3.225549e-06  8.631845e-13  4.823433e-13
 3.225754e-06 -5.442837e-11 -1.242647e-11
 3.225686e-06 -1.113095e-10 -2.561347e-11
 3.226035e-06 -1.713773e-10 -3.936934e-11
 3.226118e-06 -2.361857e-10 -5.396105e-11
 3.226628e-06 -3.072262e-10 -6.966275e-11
 3.226887e-06 -3.858921e-10 -8.671491e-11
 3.227590e-06 -4.734502e-10 -1.053600e-10
 3.228062e-06 -5.709844e-10 -1.257930e-10
 3.229000e-06 -6.793621e-10 -1.482038e-10
 3.229732e-06 -7.991367e-10 -1.727061e-10
 3.230956e-06 -9.305525e-10 -1.994105e-10
 3.232000e-06 -1.073335e-09 -2.282969e-10
 3.233561e-06 -1.226820e-09 -2.593673e-10
 3.234967e-06 -1.389467e-09 -2.923740e-10
 3.236910e-06 -1.559339e-09 -3.271661e-10
 3.238713e-06 -1.733012e-09 -3.631092e-10
 3.977390e-06 -3.140479e-09 -5.033068e-10
 3.980020e-06 -3.413253e-09 -5.510815e-10
 3.983221e-06 -3.663240e-09 -5.968439e-10
 3.986282e-06 -3.878272e-09 -6.393922e-10
 3.989857e-06 -4.039293e-09 -6.747544e-10
 3.993207e-06 -4.129895e-09 -7.008753e-10
 3.996951e-06 -4.123819e-09 -7.113366e-10
 4.000308e-06 -4.000864e-09 -7.024535e-10
 4.003851e-06 -3.728401e-09 -6.631691e-10
 4.006744e-06 -3.290560e-09 -5.852637e-10
 4.009502e-06 -2.668742e-09 -4.548631e-10
 4.011260e-06 -1.891863e-09 -2.694114e-10
 4.012537e-06 -9.941186e-10 -3.051867e-11
 4.012744e-06 -3.726978e-10  9.375844e-11
 4.012928e-06 -8.795720e-11  8.598950e-11
 4.012718e-06  5.242470e-12  3.902049e-12
 4.012911e-06  9.569769e-11 -7.956738e-11
 4.012716e-06  3.724945e-10 -9.120941e-11
 4.012514e-06  9.823713e-10  2.713482e-11
 4.011261e-06  1.863891e-09  2.576005e-10
 4.009537e-06  2.641838e-09  4.449710e-10
 4.006808e-06  3.266681e-09  5.777737e-10
 4.003935e-06  3.710175e-09  6.583514e-10
 4.000408e-06  3.988168e-09  6.995959e-10
 3.997060e-06  4.115894e-09  7.097399e-10
 3.993321e-06  4.126077e-09  7.002458e-10
 3.989972e-06  4.038812e-09  6.747842e-10
 3.986396e-06  3.880523e-09  6.399294e-10
 3.983330e-06  3.667567e-09  5.977023e-10
 3.980125e-06  3.419152e-09  5.521743e-10
 3.977488e-06  3.147449e-09  5.045214e-10
 3.974746e-06  2.865303e-09  4.570586e-10
 3.972588e-06  2.580942e-09  4.104278e-10
 3.970326e-06  2.302193e-09  3.658128e-10
 3.968638e-06  2.033988e-09  3.235109e-10
 3.966828e-06  1.780470e-09  2.840204e-10
 3.965567e-06  1.544006e-09  2.474076e-10
 3.964155e-06  1.326150e-09  2.137768e-10
 3.963262e-06  1.127375e-09  1.830360e-10
 3.962187e-06  9.474828e-10  1.550722e-10
 3.961601e-06  7.855977e-10  1.296794e-10
 3.960803e-06  6.403580e-10  1.066221e-10
 3.960468e-06  5.099931e-10  8.562022e-11
 3.959897e-06  3.924295e-10  6.637631e-11
 3.959768e-06  2.853602e-10  4.856309e-11
 3.959387e-06  1.863087e-10  3.184575e-11
 3.959434e-06  9.267904e-11  1.586415e-11
 3.959220e-06  1.799599e-12  2.613257e-13
 3.959430e-06 -8.903862e-11 -1.533982e-11
 3.959379e-06 -1.825453e-10 -3.129987e-11
 3.959756e-06 -2.813948e-10 -4.799271e-11
 3.959881e-06 -3.881874e-10 -6.576214e-11
 3.960447e-06 -5.054067e-10 -8.496039e-11
 3.960778e-06 -6.353680e-10 -1.058990e-10
 3.961570e-06 -7.801575e-10 -1.288932e-10
 3.962151e-06 -9.415598e-10 -1.542079e-10
 3.963220e-06 -1.120957e-09 -1.820978e-10
 3.964107e-06 -1.319246e-09 -2.127538e-10
 3.965512e-06 -1.536654e-09 -2.463103e-10
 3.966766e-06 -1.772740e-09 -2.828448e-10
 3.968569e-06 -2.025992e-09 -3.222776e-10
 3.970249e-06 -2.294080e-09 -3.645280e-10
 3.972504e-06 -2.572926e-09 -4.091297e-10
 3.974654e-06 -2.857638e-09 -4.557690e-10
 4.578367e-06 -4.453131e-09 -6.042336e-10
 4.581300e-06 -4.833560e-09 -6.635282e-10
 4.584831e-06 -5.181745e-09 -7.217147e-10
 4.588252e-06 -5.475595e-09 -7.749049e-10
 4.592206e-06 -5.694536e-09 -8.212951e-10
 4.595957e-06 -5.807232e-09 -8.543781e-10
 4.600105e-06 -5.787271e-09 -8.708482e-10
 4.603866e-06 -5.593763e-09 -8.590879e-10
 4.607787e-06 -5.199924e-09 -8.104369e-10
 4.611016e-06 -4.572750e-09 -7.073603e-10
 4.614045e-06 -3.723656e-09 -5.429709e-10
 4.616003e-06 -2.698322e-09 -3.171935e-10
 4.617418e-06 -1.585366e-09 -4.581655e-11
 4.617703e-06 -7.438066e-10  1.007016e-10
 4.617929e-06 -2.646078e-10  9.541595e-11
 4.617728e-06  4.245972e-12  4.162597e-12
 4.617912e-06  2.699387e-10 -8.882799e-11
 4.617677e-06  7.408854e-10 -9.862840e-11
 4.617396e-06  1.571578e-09  4.164103e-11
 4.616005e-06  2.670759e-09  3.047477e-10
 4.614082e-06  3.694077e-09  5.312434e-10
 4.611083e-06  4.544040e-09  6.973431e-10
 4.607879e-06  5.176563e-09  8.032997e-10
 4.603976e-06  5.577470e-09  8.547611e-10
 4.600225e-06  5.777496e-09  8.684035e-10
 4.596082e-06  5.802981e-09  8.531676e-10
 4.592334e-06  5.694950e-09  8.209932e-10
 4.588377e-06  5.479741e-09  7.752177e-10
 4.584952e-06  5.188859e-09  7.224675e-10
 4.581416e-06  4.842863e-09  6.645516e-10
 4.578476e-06  4.464007e-09  6.054255e-10
 4.575462e-06  4.067083e-09  5.461075e-10
 4.573061e-06  3.666557e-09  4.887154e-10
 4.570585e-06  3.272057e-09  4.337547e-10
 4.568710e-06  2.892037e-09  3.821891e-10
 4.566737e-06  2.531895e-09  3.341804e-10
 4.565338e-06  2.195698e-09  2.900206e-10
 4.563808e-06  1.885598e-09  2.496449e-10
 4.562817e-06  1.602575e-09  2.129809e-10
 4.561660e-06  1.346383e-09  1.798047e-10
 4.561006e-06  1.115883e-09  1.498496e-10
 4.560154e-06  9.091725e-10  1.227980e-10
 4.559775e-06  7.237715e-10  9.829703e-11
 4.559172e-06  5.567401e-10  7.597383e-11
 4.559018e-06  4.047919e-10  5.542372e-11
 4.558620e-06  2.643819e-10  3.623216e-11
 4.558657e-06  1.317815e-10  1.795436e-11
 4.558440e-06  3.144839e-12  1.462511e-13
 4.558653e-06 -1.254333e-10 -1.765913e-11
 4.558612e-06 -2.578583e-10 -3.591125e-11
 4.559005e-06 -3.979810e-10 -5.507223e-11
 4.559154e-06 -5.495354e-10 -7.556918e-11
 4.559753e-06 -7.160772e-10 -9.783542e-11
 4.560126e-06 -9.009055e-10 -1.222590e-10
 4.560972e-06 -1.106978e-09 -1.492316e-10
 4.561620e-06 -1.336797e-09 -1.790904e-10
 4.562771e-06 -1.592293e-09 -2.121724e-10
 4.563755e-06 -1.874637e-09 -2.487310e-10
 4.565277e-06 -2.184116e-09 -2.890096e-10
 4.566669e-06 -2.519799e-09 -3.330709e-10
 4.568633e-06 -2.879584e-09 -3.809995e-10
 4.570500e-06 -3.259478e-09 -4.325013e-10
 4.572968e-06 -3.654138e-09 -4.874324e-10
 4.575361e-06 -4.055213e-09 -5.448400e-10
 5.077436e-06 -5.768452e-09 -6.980327e-10
 5.080586e-06 -6.257178e-09 -7.703421e-10
 5.084364e-06 -6.699586e-09 -8.405030e-10
 5.088056e-06 -7.072421e-09 -9.070585e-10
 5.092309e-06 -7.341194e-09 -9.638535e-10
 5.096372e-06 -7.474762e-09 -1.008182e-09
 5.100850e-06 -7.426077e-09 -1.028639e-09
 5.104935e-06 -7.159415e-09 -1.016668e-09
 5.109162e-06 -6.628389e-09 -9.529424e-10
 5.112655e-06 -5.824242e-09 -8.250313e-10
 5.115893e-06 -4.761479e-09 -6.235675e-10
 5.118002e-06 -3.535730e-09 -3.631841e-10
 5.119518e-06 -2.249415e-09 -6.910092e-11
 5.119874e-06 -1.208699e-09  9.365631e-11
 5.120131e-06 -4.975758e-10  9.659935e-11
 5.119943e-06  1.902343e-12  3.914626e-12
 5.120115e-06  4.988237e-10 -9.041091e-11
 5.119849e-06  1.202988e-09 -9.199860e-11
 5.119498e-06  2.234949e-09  6.464744e-11
 5.118006e-06  3.510822e-09  3.508487e-10
 5.115932e-06  4.732771e-09  6.109316e-10
 5.112726e-06  5.794432e-09  8.131451e-10
 5.109259e-06  6.602419e-09  9.436109e-10
 5.105052e-06  7.140559e-09  1.010556e-09
 5.100980e-06  7.415117e-09  1.025242e-09
 5.096508e-06  7.470769e-09  1.006530e-09
 5.092446e-06  7.343000e-09  9.633150e-10
 5.088191e-06  7.079003e-09  9.073321e-10
 5.084495e-06  6.709896e-09  8.412854e-10
 5.080710e-06  6.270339e-09  7.714816e-10
 5.077553e-06  5.783616e-09  6.993514e-10
 5.074346e-06  5.273370e-09  6.284974e-10
 5.071780e-06  4.755709e-09  5.596867e-10
 5.069162e-06  4.245430e-09  4.946830e-10
 5.067169e-06  3.752505e-09  4.337875e-10
 5.065097e-06  3.285057e-09  3.776477e-10
 5.063617e-06  2.848151e-09  3.262483e-10
 5.062021e-06  2.445072e-09  2.796250e-10
 5.060976e-06  2.077099e-09  2.375329e-10
 5.059777e-06  1.744078e-09  1.996932e-10
 5.059091e-06  1.444583e-09  1.657384e-10
 5.058215e-06  1.176209e-09  1.352767e-10
 5.057819e-06  9.357606e-10  1.078760e-10
 5.057202e-06  7.194230e-10  8.308782e-11
 5.057040e-06  5.229077e-10  6.042804e-11
 5.056636e-06  3.415705e-10  3.939971e-11
 5.056670e-06  1.705135e-10  1.946983e-11
 5.056452e-06  4.675430e-12  1.044546e-13
 5.056665e-06 -1.610861e-10 -1.925754e-11
 5.056627e-06 -3.319146e-10 -3.915737e-11
 5.057026e-06 -5.128769e-10 -6.014907e-11
 5.057184e-06 -7.088790e-10 -8.274626e-11
 5.057795e-06 -9.245787e-10 -1.074664e-10
 5.058186e-06 -1.164282e-09 -1.347751e-10
 5.059056e-06 -1.431828e-09 -1.651421e-10
 5.059736e-06 -1.730440e-09 -1.989810e-10
 5.060928e-06 -2.062562e-09 -2.367068e-10
 5.061965e-06 -2.429660e-09 -2.786694e-10
 5.063553e-06 -2.831946e-09 -3.251741e-10
 5.065025e-06 -3.268197e-09 -3.764485e-10
 5.067088e-06 -3.735208e-09 -4.324902e-10
 5.069073e-06 -4.227982e-09 -4.932965e-10
 5.071681e-06 -4.738505e-09 -5.582657e-10
 5.074238e-06 -5.256879e-09 -6.270768e-10
 5.496210e-06 -7.025576e-09 -7.921667e-10
 5.499521e-06 -7.615928e-09 -8.778341e-10
 5.503484e-06 -8.150028e-09 -9.635603e-10
 5.507394e-06 -8.592179e-09 -1.043725e-09
 5.511887e-06 -8.908105e-09 -1.116451e-09
 5.516219e-06 -9.046954e-09 -1.170823e-09
 5.520972e-06 -8.966267e-09 -1.199144e-09
 5.525337e-06 -8.609467e-09 -1.181069e-09
 5.529821e-06 -7.950964e-09 -1.101483e-09
 5.533534e-06 -6.977213e-09 -9.419124e-10
 5.536937e-06 -5.748244e-09 -7.046822e-10
 5.539160e-06 -4.365265e-09 -4.144571e-10
 5.540766e-06 -2.958861e-09 -1.085804e-10
 5.541188e-06 -1.731692e-09  6.797124e-11
 5.541492e-06 -7.745067e-10  8.577072e-11
 5.541314e-06 -9.410112e-13  3.325062e-12
 5.541477e-06  7.707954e-10 -8.063543e-11
 5.541166e-06  1.723294e-09 -6.679627e-11
 5.540749e-06  2.944570e-09  1.041973e-10
 5.539166e-06  4.343775e-09  4.026264e-10
 5.536976e-06  5.722895e-09  6.919050e-10
 5.533605e-06  6.949641e-09  9.289980e-10
 5.529922e-06  7.925466e-09  1.090380e-09
 5.525460e-06  8.589973e-09  1.173118e-09
 5.521109e-06  8.954857e-09  1.194437e-09
 5.516362e-06  9.043665e-09  1.168649e-09
 5.512032e-06  8.911723e-09  1.115808e-09
 5.507537e-06  8.601420e-09  1.044050e-09
 5.503622e-06  8.163754e-09  9.645463e-10
 5.499651e-06  7.633027e-09  8.792148e-10
 5.496332e-06  7.045116e-09  7.937831e-10
 5.492994e-06  6.424562e-09  7.092368e-10
 5.490320e-06  5.794845e-09  6.286451e-10
 5.487618e-06  5.172168e-09  5.524735e-10
 5.485559e-06  4.570517e-09  4.820129e-10
 5.483439e-06  3.999272e-09  4.173310e-10
 5.481923e-06  3.465390e-09  3.586863e-10
 5.480304e-06  2.972784e-09  3.058154e-10
 5.479245e-06  2.523270e-09  2.584374e-10
 5.478039e-06  2.116712e-09  2.161342e-10
 5.477351e-06  1.751469e-09  1.784569e-10
 5.476477e-06  1.424636e-09  1.449228e-10
 5.476085e-06  1.132314e-09  1.150174e-10
 5.475473e-06  8.698142e-10  8.820760e-11
 5.475316e-06  6.318433e-10  6.391982e-11
 5.474916e-06  4.126574e-10  4.156371e-11
 5.474953e-06  2.061942e-10  2.050812e-11
 5.474736e-06  6.189237e-12  1.195884e-13
 5.474948e-06 -1.937214e-10 -2.026441e-11
 5.474907e-06 -3.999028e-10 -4.128522e-11
 5.475302e-06 -6.186267e-10 -6.359790e-11
 5.475455e-06 -8.559659e-10 -8.781311e-11
 5.476061e-06 -1.117681e-09 -1.145430e-10
 5.476448e-06 -1.409088e-09 -1.443410e-10
 5.477316e-06 -1.734903e-09 -1.777627e-10
 5.477997e-06 -2.099063e-09 -2.153041e-10
 5.479196e-06 -2.504518e-09 -2.574701e-10
 5.480247e-06 -2.952964e-09 -3.046944e-10
 5.481858e-06 -3.444599e-09 -3.574179e-10
 5.483365e-06 -3.977689e-09 -4.159128e-10
 5.485475e-06 -4.548397e-09 -4.804649e-10
 5.487525e-06 -5.149880e-09 -5.508196e-10
 5.490217e-06 -5.772843e-09 -6.269293e-10
 5.492881e-06 -6.403446e-09 -7.075282e-10
 5.849160e-06 -8.160239e-09 -8.936971e-10
 5.852586e-06 -8.845147e-09 -9.972355e-10
 5.856700e-06 -9.457744e-09 -1.099879e-09
 5.860786e-06 -9.962254e-09 -1.200490e-09
 5.865493e-06 -1.030644e-08 -1.288950e-09
 5.870057e-06 -1.044339e-08 -1.358590e-09
 5.875065e-06 -1.031010e-08 -1.388970e-09
 5.879676e-06 -9.868333e-09 -1.363731e-09
 5.884387e-06 -9.083318e-09 -1.258874e-09
 5.888282e-06 -7.983523e-09 -1.065530e-09
 5.891820e-06 -6.632049e-09 -7.944049e-10
 5.894143e-06 -5.160206e-09 -4.851213e-10
 5.895833e-06 -3.657475e-09 -1.719724e-10
 5.896342e-06 -2.277264e-09  1.679542e-11
 5.896705e-06 -1.073412e-09  5.749018e-11
 5.896556e-06 -3.674346e-12  2.456084e-12
 5.896693e-06  1.065136e-09 -5.378141e-11
 5.896325e-06  2.266530e-09 -1.639399e-11
 5.895821e-06  3.643737e-09  1.676740e-10
 5.894152e-06  5.142484e-09  4.739950e-10
 5.891860e-06  6.611391e-09  7.820502e-10
 5.888354e-06  7.960675e-09  1.052395e-09
 5.884489e-06  9.061249e-09  1.246728e-09
 5.879802e-06  9.850669e-09  1.354191e-09
 5.875208e-06  1.029964e-08  1.382791e-09
 5.870208e-06  1.044122e-08  1.355525e-09
 5.865646e-06  1.031206e-08  1.288142e-09
 5.860936e-06  9.974275e-09  1.200990e-09
 5.856843e-06  9.474823e-09  1.101153e-09
 5.852722e-06  8.866090e-09  9.990172e-10
 5.849287e-06  8.183926e-09  8.957233e-10
 5.845858e-06  7.463596e-09  7.962167e-10
 5.843122e-06  6.729521e-09  7.010389e-10
 5.840379e-06  6.003711e-09  6.125771e-10
 5.838298e-06  5.301434e-09  5.310071e-10
 5.836171e-06  4.634915e-09  4.570296e-10
 5.834659e-06  4.011968e-09  3.903511e-10
 5.833053e-06  3.437575e-09  3.307347e-10
 5.832013e-06  2.913903e-09  2.776889e-10
 5.830831e-06  2.440954e-09  2.307094e-10
 5.830168e-06  2.016845e-09  1.892336e-10
 5.829319e-06  1.638183e-09  1.526828e-10
 5.828951e-06  1.300354e-09  1.204405e-10
 5.828360e-06  9.977896e-10  9.186731e-11
 5.828220e-06  7.242023e-10  6.627631e-11
 5.827834e-06  4.727799e-10  4.296175e-11
 5.827878e-06  2.363533e-10  2.117628e-11
 5.827663e-06  7.533307e-12  1.729034e-13
 5.827874e-06 -2.211749e-10 -2.082450e-11
 5.827825e-06 -4.572681e-10 -4.256966e-11
 5.828207e-06 -7.081442e-10 -6.583268e-11
 5.828342e-06 -9.809855e-10 -9.133934e-11
 5.828927e-06 -1.282624e-09 -1.198188e-10
 5.829290e-06 -1.619373e-09 -1.519362e-10
 5.830133e-06 -1.996835e-09 -1.883550e-10
 5.830789e-06 -2.419666e-09 -2.296706e-10
 5.831964e-06 -2.891315e-09 -2.764877e-10
 5.832996e-06 -3.413724e-09 -3.293483e-10
 5.834593e-06 -3.986973e-09 -3.887878e-10
 5.836096e-06 -4.608975e-09 -4.552782e-10
 5.838213e-06 -5.274859e-09 -5.290986e-10
 5.840284e-06 -5.976906e-09 -6.105227e-10
 5.843017e-06 -6.703041e-09 -6.989120e-10
 5.845742e-06 -7.438096e-09 -7.940681e-10
 6.146309e-06 -9.103447e-09 -1.013296e-09
 6.149824e-06 -9.864105e-09 -1.137318e-09
 6.154057e-06 -1.054120e-08 -1.264948e-09
 6.158306e-06 -1.108348e-08 -1.386891e-09
 6.163203e-06 -1.144193e-08 -1.497609e-09
 6.167993e-06 -1.155090e-08 -1.576891e-09
 6.173232e-06 -1.136384e-08 -1.608522e-09
 6.178074e-06 -1.083167e-08 -1.564896e-09
 6.182982e-06 -9.958080e-09 -1.430237e-09
 6.187033e-06 -8.772485e-09 -1.202106e-09
 6.190686e-06 -7.373799e-09 -9.077915e-10
 6.193105e-06 -5.851510e-09 -5.868191e-10
 6.194901e-06 -4.294871e-09 -2.673855e-10
 6.195515e-06 -2.783992e-09 -6.425412e-11
 6.195969e-06 -1.363931e-09  8.780455e-12
 6.195850e-06 -5.748551e-12  1.475122e-12
 6.195960e-06  1.352236e-09 -6.765280e-12
 6.195503e-06  2.771791e-09  6.369112e-11
 6.194894e-06  4.282005e-09  2.628865e-10
 6.193119e-06  5.837219e-09  5.762400e-10
 6.190728e-06  7.358354e-09  8.961884e-10
 6.187105e-06  8.755673e-09  1.189402e-09
 6.183084e-06  9.941655e-09  1.417853e-09
 6.178201e-06  1.081827e-08  1.554404e-09
 6.173378e-06  1.135619e-08  1.601016e-09
 6.168149e-06  1.155075e-08  1.572731e-09
 6.163361e-06  1.144962e-08  1.496288e-09
 6.158462e-06  1.109816e-08  1.387532e-09
 6.154206e-06  1.056141e-08  1.266638e-09
 6.149964e-06  9.888506e-09  1.139592e-09
 6.146438e-06  9.130852e-09  1.015890e-09
 6.142956e-06  8.324214e-09  8.960264e-10
 6.140190e-06  7.501695e-09  7.840412e-10
 6.137442e-06  6.686476e-09  6.801108e-10
 6.135372e-06  5.898016e-09  5.857377e-10
 6.133272e-06  5.149490e-09  5.005495e-10
 6.131797e-06  4.450476e-09  4.244530e-10
 6.130236e-06  3.806660e-09  3.568707e-10
 6.129245e-06  3.220781e-09  2.972429e-10
 6.128113e-06  2.692892e-09  2.449186e-10
 6.127500e-06  2.220860e-09  1.992224e-10
 6.126698e-06  1.800739e-09  1.594452e-10
 6.126370e-06  1.427164e-09  1.248308e-10
 6.125815e-06  1.093676e-09  9.458747e-11
 6.125702e-06  7.930259e-10  6.787444e-11
 6.125336e-06  5.174215e-10  4.383731e-11
 6.125393e-06  2.587225e-10  2.158870e-11
 6.125182e-06  8.586468e-12  2.507855e-13
 6.125388e-06 -2.414217e-10 -2.107918e-11
 6.125328e-06 -4.997400e-10 -4.328069e-11
 6.125690e-06 -7.747205e-10 -6.725599e-11
 6.125797e-06 -1.074519e-09 -9.387019e-11
 6.126348e-06 -1.406951e-09 -1.240025e-10
 6.126669e-06 -1.779294e-09 -1.584713e-10
 6.127466e-06 -2.198044e-09 -1.980921e-10
 6.128072e-06 -2.668616e-09 -2.436002e-10
 6.129197e-06 -3.195015e-09 -2.957290e-10
 6.130179e-06 -3.779447e-09 -3.551373e-10
 6.131732e-06 -4.421940e-09 -4.225003e-10
 6.133197e-06 -5.119862e-09 -4.983712e-10
 6.135287e-06 -5.867626e-09 -5.833520e-10
 6.137346e-06 -6.655793e-09 -6.775499e-10
 6.140083e-06 -7.471304e-09 -7.813606e-10
 6.142837e-06 -8.294876e-09 -8.933276e-10
 6.394825e-06 -9.771272e-09 -1.157858e-09
 6.398405e-06 -1.058440e-08 -1.311315e-09
 6.402750e-06 -1.129374e-08 -1.465807e-09
 6.407146e-06 -1.185056e-08 -1.616574e-09
 6.412238e-06 -1.219026e-08 -1.743933e-09
 6.417239e-06 -1.226205e-08 -1.832461e-09
 6.422707e-06 -1.200908e-08 -1.852663e-09
 6.427755e-06 -1.141725e-08 -1.784696e-09
 6.432837e-06 -1.048958e-08 -1.616930e-09
 6.437019e-06 -9.292633e-09 -1.364198e-09
 6.440784e-06 -7.890551e-09 -1.056053e-09
 6.443317e-06 -6.375615e-09 -7.267450e-10
 6.445242e-06 -4.787785e-09 -3.991995e-10
 6.445996e-06 -3.194381e-09 -1.748146e-10
 6.446559e-06 -1.598455e-09 -5.705543e-11
 6.446488e-06 -6.845802e-12  4.833391e-13
 6.446554e-06  1.585086e-09  5.732520e-11
 6.445990e-06  3.181845e-09  1.730883e-10
 6.445242e-06  4.776323e-09  3.942651e-10
 6.443336e-06  6.364919e-09  7.163862e-10
 6.440831e-06  7.880192e-09  1.045160e-09
 6.437094e-06  9.282269e-09  1.352332e-09
 6.432940e-06  1.047990e-08  1.605009e-09
 6.427882e-06  1.140989e-08  1.774039e-09
 6.422855e-06  1.200606e-08  1.844404e-09
 6.417398e-06  1.226516e-08  1.827302e-09
 6.412401e-06  1.220044e-08  1.741897e-09
 6.407306e-06  1.186760e-08  1.617047e-09
 6.402904e-06  1.131662e-08  1.467903e-09
 6.398548e-06  1.061168e-08  1.314214e-09
 6.394957e-06  9.801680e-09  1.161115e-09
 6.391438e-06  8.934902e-09  1.017289e-09
 6.388670e-06  8.045598e-09  8.829498e-10
 6.385941e-06  7.163379e-09  7.608152e-10
 6.383912e-06  6.308790e-09  6.501878e-10
 6.381867e-06  5.497895e-09  5.512893e-10
 6.380459e-06  4.741426e-09  4.634320e-10
 6.378971e-06  4.046225e-09  3.860527e-10
 6.378056e-06  3.415410e-09  3.184044e-10
 6.377000e-06  2.849033e-09  2.597137e-10
 6.376458e-06  2.344552e-09  2.091359e-10
 6.375719e-06  1.897366e-09  1.657684e-10
 6.375448e-06  1.501287e-09  1.286356e-10
 6.374938e-06  1.148981e-09  9.672399e-11
 6.374862e-06  8.323416e-10  6.898288e-11
 6.374521e-06  5.427768e-10  4.436973e-11
 6.374594e-06  2.714208e-10  2.183069e-11
 6.374388e-06  9.267816e-12  3.413936e-13
 6.374590e-06 -2.527446e-10 -2.113783e-11
 6.374514e-06 -5.236817e-10 -4.362189e-11
 6.374850e-06 -8.125590e-10 -6.816067e-11
 6.374922e-06 -1.128258e-09 -9.578471e-11
 6.375426e-06 -1.479396e-09 -1.275631e-10
 6.375693e-06 -1.874111e-09 -1.645236e-10
 6.376425e-06 -2.319778e-09 -2.077054e-10
 6.376960e-06 -2.822636e-09 -2.580597e-10
 6.378010e-06 -3.387354e-09 -3.165168e-10
 6.378916e-06 -4.016547e-09 -3.838985e-10
 6.380395e-06 -4.710263e-09 -4.610133e-10
 6.381793e-06 -5.465483e-09 -5.485863e-10
 6.383828e-06 -6.275494e-09 -6.472332e-10
 6.385845e-06 -7.129681e-09 -7.576212e-10
 6.388562e-06 -8.012149e-09 -8.796128e-10
 6.391319e-06 -8.902486e-09 -1.013887e-09
 6.599956e-06 -1.007330e-08 -1.337966e-09
 6.603601e-06 -1.089775e-08 -1.522995e-09
 6.608049e-06 -1.160541e-08 -1.712106e-09
 6.612604e-06 -1.213615e-08 -1.885782e-09
 6.617883e-06 -1.243879e-08 -2.029673e-09
 6.623104e-06 -1.245463e-08 -2.113351e-09
 6.628780e-06 -1.215823e-08 -2.115585e-09
 6.634015e-06 -1.153410e-08 -2.018315e-09
 6.639242e-06 -1.062038e-08 -1.827371e-09
 6.643549e-06 -9.455096e-09 -1.560182e-09
 6.647435e-06 -8.111971e-09 -1.242643e-09
 6.650111e-06 -6.635493e-09 -9.063441e-10
 6.652197e-06 -5.071908e-09 -5.639649e-10
 6.653118e-06 -3.433608e-09 -3.072222e-10
 6.653811e-06 -1.740459e-09 -1.320029e-10
 6.653790e-06 -6.863426e-12 -4.374903e-13
 6.653809e-06  1.727298e-09  1.305861e-10
 6.653118e-06  3.422089e-09  3.042610e-10
 6.652204e-06  5.062645e-09  5.583871e-10
 6.650137e-06  6.628369e-09  8.959603e-10
 6.647487e-06  8.106606e-09  1.232228e-09
 6.643627e-06  9.450860e-09  1.549168e-09
 6.639346e-06  1.061754e-08  1.816357e-09
 6.634144e-06  1.153342e-08  2.008202e-09
 6.628927e-06  1.216097e-08  2.107323e-09
 6.623265e-06  1.246213e-08  2.107725e-09
 6.618049e-06  1.245204e-08  2.027006e-09
 6.612768e-06  1.215546e-08  1.885914e-09
 6.608206e-06  1.163026e-08  1.714346e-09
 6.603747e-06  1.092707e-08  1.526528e-09
 6.600090e-06  1.010576e-08  1.342028e-09
 6.596552e-06  9.212685e-09  1.165850e-09
 6.593793e-06  8.290753e-09  1.005225e-09
 6.591104e-06  7.370949e-09  8.590593e-10
 6.589138e-06  6.478796e-09  7.281614e-10
 6.587174e-06  5.632359e-09  6.115817e-10
 6.585860e-06  4.844492e-09  5.088679e-10
 6.584472e-06  4.122833e-09  4.192014e-10
 6.583658e-06  3.470767e-09  3.417307e-10
 6.582698e-06  2.888038e-09  2.754587e-10
 6.582244e-06  2.371481e-09  2.192655e-10
 6.581584e-06  1.915685e-09  1.719185e-10
 6.581379e-06  1.513631e-09  1.321076e-10
 6.580924e-06  1.157229e-09  9.850685e-11
 6.580889e-06  8.377452e-10  6.979317e-11
 6.580577e-06  5.461123e-10  4.469430e-11
 6.580667e-06  2.731215e-10  2.196867e-11
 6.580468e-06  9.527074e-12  4.352352e-13
 6.580664e-06 -2.539198e-10 -2.108553e-11
 6.580570e-06 -5.264694e-10 -4.374787e-11
 6.580878e-06 -8.173755e-10 -6.875820e-11
 6.580909e-06 -1.135860e-09 -9.733357e-11
 6.581359e-06 -1.491015e-09 -1.307727e-10
 6.581559e-06 -1.891605e-09 -1.703765e-10
 6.582214e-06 -2.345765e-09 -2.174985e-10
 6.582661e-06 -2.860571e-09 -2.734258e-10
 6.583614e-06 -3.441500e-09 -3.394145e-10
 6.584420e-06 -4.091799e-09 -4.165661e-10
 6.585799e-06 -4.811823e-09 -5.059035e-10
 6.587102e-06 -5.598304e-09 -6.082754e-10
 6.589055e-06 -6.443723e-09 -7.245271e-10
 6.591009e-06 -7.335372e-09 -8.551392e-10
 6.593685e-06 -8.255328e-09 -1.001091e-09
 6.596431e-06 -9.178245e-09 -1.161650e-09
 6.765626e-06 -9.907277e-09 -1.556308e-09
 6.769341e-06 -1.069913e-08 -1.777497e-09
 6.773915e-06 -1.135772e-08 -1.993030e-09
 6.778627e-06 -1.183516e-08 -2.189181e-09
 6.784108e-06 -1.207629e-08 -2.334289e-09