# vtk DataFile Version 2.0
Generated by ludwig extract.c
ASCII
DATASET STRUCTURED_POINTS
DIMENSIONS 64 32 32
ORIGIN 0 0 0
SPACING 1 1 1
POINT_DATA 65536
VECTORS velocity_field float
 1.113724e-06 -2.895623e-10 -2.895623e-10
 1.114470e-06 -3.151710e-10 -3.151710e-10
 1.115642e-06 -3.393272e-10 -3.393272e-10
 1.116535e-06 -3.605104e-10 -3.605104e-10
 1.117835e-06 -3.775752e-10 -3.775752e-10
 1.118830e-06 -3.881699e-10 -3.881699e-10
 1.120194e-06 -3.906638e-10 -3.906638e-10
 1.121201e-06 -3.816994e-10 -3.816994e-10
 1.122509e-06 -3.591554e-10 -3.591555e-10
 1.123372e-06 -3.184363e-10 -3.184363e-10
 1.124427e-06 -2.564159e-10 -2.564159e-10
 1.124902e-06 -1.670456e-10 -1.670456e-10
 1.125412e-06 -4.897224e-11 -4.897228e-11
 1.125296e-06  1.574099e-11  1.574102e-11
 1.125415e-06  2.487294e-11  2.487294e-11
 1.125204e-06  2.307238e-12  2.307276e-12
 1.125408e-06 -2.064184e-11 -2.064186e-11
 1.125282e-06 -1.282892e-11 -1.282891e-11
 1.125399e-06  4.930939e-11  4.930942e-11
 1.124900e-06  1.624148e-10  1.624148e-10
 1.124439e-06  2.540436e-10  2.540436e-10
 1.123395e-06  3.173105e-10  3.173106e-10
 1.122539e-06  3.588940e-10  3.588940e-10
 1.121235e-06  3.820857e-10  3.820857e-10
 1.120231e-06  3.915894e-10  3.915895e-10
 1.118868e-06  3.895138e-10  3.895138e-10
 1.117874e-06  3.792581e-10  3.792581e-10
 1.116573e-06  3.624447e-10  3.624447e-10
 1.115679e-06  3.414526e-10  3.414526e-10
 1.114505e-06  3.174282e-10  3.174283e-10
 1.113756e-06  2.919084e-10  2.919084e-10
 1.112738e-06  2.656425e-10  2.656424e-10
 1.112149e-06  2.395509e-10  2.395509e-10
 1.111289e-06  2.140823e-10  2.140823e-10
 1.110854e-06  1.897353e-10  1.897354e-10
 1.110142e-06  1.667369e-10  1.667369e-10
 1.109847e-06  1.453059e-10  1.453059e-10
 1.109265e-06  1.255088e-10  1.255088e-10
 1.109089e-06  1.073834e-10  1.073834e-10
 1.108617e-06  9.088202e-11  9.088200e-11
 1.108542e-06  7.592585e-11  7.592586e-11
 1.108160e-06  6.238921e-11  6.238923e-11
 1.108167e-06  5.012016e-11  5.012018e-11
 1.107860e-06  3.894102e-11  3.894098e-11
 1.107934e-06  2.865455e-11  2.865449e-11
 1.107690e-06  1.905147e-11  1.905146e-11
 1.107823e-06  9.908952e-12  9.908997e-12
 1.107634e-06  1.002146e-12  1.002136e-12
 1.107822e-06 -7.902845e-12 -7.902828e-12
 1.107688e-06 -1.703289e-11 -1.703288e-11
 1.107931e-06 -2.661998e-11 -2.661996e-11
 1.107855e-06 -3.688058e-11 -3.688064e-11
 1.108160e-06 -4.803128e-11 -4.803129e-11
 1.108152e-06 -6.026323e-11 -6.026322e-11
 1.108532e-06 -7.376163e-11 -7.376158e-11
 1.108605e-06 -8.867329e-11 -8.867324e-11
 1.109075e-06 -1.051316e-10 -1.051316e-10
 1.109249e-06 -1.232111e-10 -1.232111e-10
 1.109829e-06 -1.429675e-10 -1.429674e-10
 1.110122e-06 -1.643603e-10 -1.643602e-10
 1.110831e-06 -1.873313e-10 -1.873312e-10
 1.111264e-06 -2.116609e-10 -2.116609e-10
 1.112121e-06 -2.371307e-10 -2.371307e-10
 1.112708e-06 -2.632448e-10 -2.632448e-10
 2.315732e-06 -8.812746e-10 -3.079340e-10
 2.317341e-06 -9.601385e-10 -3.351127e-10
 2.319444e-06 -1.033362e-09 -3.606787e-10
 2.321330e-06 -1.098171e-09 -3.839177e-10
 2.323675e-06 -1.148441e-09 -4.025836e-10
 2.325750e-06 -1.180296e-09 -4.155420e-10
 2.328210e-06 -1.184804e-09 -4.192640e-10
 2.330299e-06 -1.157079e-09 -4.120150e-10
 2.332642e-06 -1.085114e-09 -3.886476e-10
 2.334451e-06 -9.635144e-10 -3.460832e-10
 2.336312e-06 -7.780469e-10 -2.762825e-10
 2.337401e-06 -5.326559e-10 -1.736542e-10
 2.338247e-06 -1.860909e-10 -2.657881e-11
 2.338216e-06 -8.398594e-13  4.506973e-11
 2.338315e-06  4.284944e-11  4.465321e-11
 2.338084e-06  3.403684e-12  2.686951e-12
 2.338302e-06 -3.704846e-11 -3.985234e-11
 2.338193e-06  3.421701e-12 -4.196447e-11
 2.338224e-06  1.834453e-10  2.615874e-11
 2.337398e-06  5.165157e-10  1.664205e-10
 2.336336e-06  7.683150e-10  2.722501e-10
 2.334494e-06  9.559973e-10  3.438950e-10
 2.332698e-06  1.079778e-09  3.875358e-10
 2.330364e-06  1.153585e-09  4.117688e-10
 2.328280e-06  1.182782e-09  4.196208e-10
 2.325823e-06  1.179541e-09  4.164034e-10
 2.323749e-06  1.148656e-09  4.037948e-10
 2.321403e-06  1.099178e-09  3.854116e-10
 2.319515e-06  1.034938e-09  3.623560e-10
 2.317408e-06  9.621437e-10  3.369308e-10
 2.315795e-06  8.835523e-10  3.098299e-10
 2.313985e-06  8.030953e-10  2.824202e-10
 2.312677e-06  7.225801e-10  2.551194e-10
 2.311172e-06  6.442834e-10  2.286762e-10
 2.310163e-06  5.692493e-10  2.033178e-10
 2.308944e-06  4.986211e-10  1.794029e-10
 2.308205e-06  4.328559e-10  1.570193e-10
 2.307239e-06  3.723487e-10  1.362850e-10
 2.306734e-06  3.171216e-10  1.171828e-10
 2.305981e-06  2.670899e-10  9.968453e-11
 2.305671e-06  2.219664e-10  8.369356e-11
 2.305095e-06  1.813662e-10  6.909229e-11
 2.304944e-06  1.447915e-10  5.572473e-11
 2.304513e-06  1.116727e-10  4.341858e-11
 2.304494e-06  8.137955e-11  3.197812e-11
 2.304184e-06  5.324119e-11  2.120155e-11
 2.304278e-06  2.655758e-11  1.087006e-11
 2.304076e-06  6.114172e-13  7.680870e-13
 2.304276e-06 -2.532340e-11 -9.333287e-12
 2.304179e-06 -5.197314e-11 -1.965115e-11
 2.304486e-06 -8.005592e-11 -3.041331e-11
 2.304503e-06 -1.102728e-10 -4.182674e-11
 2.304931e-06 -1.432964e-10 -5.410592e-11
 2.305079e-06 -1.797590e-10 -6.743514e-11
 2.305651e-06 -2.202337e-10 -8.199973e-11
 2.305958e-06 -2.652214e-10 -9.794459e-11
 2.306707e-06 -3.151129e-10 -1.154011e-10
 2.307208e-06 -3.701996e-10 -1.344549e-10
 2.308170e-06 -4.305757e-10 -1.551493e-10
 2.308905e-06 -4.962247e-10 -1.774908e-10
 2.310119e-06 -5.667666e-10 -2.013785e-10
 2.311123e-06 -6.417501e-10 -2.267132e-10
 2.312624e-06 -7.200560e-10 -2.531573e-10
 2.313927e-06 -8.006438e-10 -2.804713e-10
 3.240774e-06 -1.906225e-09 -3.994287e-10
 3.242981e-06 -2.074110e-09 -4.356449e-10
 3.245728e-06 -2.230219e-09 -4.706679e-10
 3.248300e-06 -2.364768e-09 -5.021995e-10
 3.251364e-06 -2.469351e-09 -5.290191e-10
 3.254182e-06 -2.529599e-09 -5.472894e-10
 3.257391e-06 -2.534496e-09 -5.549940e-10
 3.260218e-06 -2.464668e-09 -5.461626e-10
 3.263263e-06 -2.307130e-09 -5.172996e-10
 3.265707e-06 -2.039208e-09 -4.583604e-10
 3.268102e-06 -1.656143e-09 -3.629846e-10
 3.269582e-06 -1.147066e-09 -2.186368e-10
 3.270679e-06 -5.154923e-10 -2.302876e-11
 3.270775e-06 -1.181668e-10  7.559777e-11
 3.270916e-06  1.443905e-11  6.864614e-11
 3.270688e-06  4.743754e-12  3.304874e-12
 3.270900e-06 -6.813866e-12 -6.285142e-11
 3.270749e-06  1.201232e-10 -7.257355e-11
 3.270655e-06  5.076313e-10  2.100905e-11
 3.269581e-06  1.122323e-09  2.084863e-10
 3.268133e-06  1.636190e-09  3.558137e-10
 3.265762e-06  2.023264e-09  4.537452e-10
 3.263336e-06  2.295189e-09  5.145400e-10
 3.260303e-06  2.456305e-09  5.446358e-10
 3.257483e-06  2.529241e-09  5.543994e-10
 3.254279e-06  2.526880e-09  5.473615e-10
 3.251462e-06  2.468759e-09  5.296073e-10
 3.248396e-06  2.365820e-09  5.031435e-10
 3.245821e-06  2.232561e-09  4.718732e-10
 3.243070e-06  2.077370e-09  4.370167e-10
 3.240858e-06  1.910133e-09  4.009074e-10
 3.238499e-06  1.736685e-09  3.642532e-10
 3.236693e-06  1.563218e-09  3.283446e-10
 3.234740e-06  1.393395e-09  2.935631e-10
 3.233332e-06  1.230688e-09  2.605452e-10
 3.231761e-06  1.077055e-09  2.294551e-10
 3.230715e-06  9.340696e-10  2.005363e-10
 3.229482e-06  8.024136e-10  1.738005e-10
 3.228748e-06  6.823816e-10  1.492597e-10
 3.227801e-06  5.737449e-10  1.268177e-10
 3.227328e-06  4.759622e-10  1.063504e-10
 3.226617e-06  3.881776e-10  8.768233e-11
 3.226357e-06  3.093139e-10  7.060670e-11
 3.225841e-06  2.381129e-10  5.489533e-11
 3.225757e-06  1.731844e-10  4.029504e-11
 3.225402e-06  1.130426e-10  2.654573e-11
 3.225470e-06  5.613406e-11  1.336749e-11
 3.225259e-06  8.654223e-13  4.829991e-13
 3.225466e-06 -5.437886e-11 -1.240010e-11
 3.225396e-06 -1.112126e-10 -2.556145e-11
 3.225747e-06 -1.712330e-10 -3.929161e-11
 3.225827e-06 -2.359939e-10 -5.385763e-11
 3.226340e-06 -3.069869e-10 -6.953367e-11
 3.226596e-06 -3.856056e-10 -8.656019e-11
 3.227302e-06 -4.731167e-10 -1.051795e-10
 3.227771e-06 -5.706049e-10 -1.255871e-10
 3.228712e-06 -6.789379e-10 -1.479725e-10
 3.229441e-06 -7.986699e-10 -1.724499e-10
 3.230668e-06 -9.300459e-10 -1.991295e-10
 3.231709e-06 -1.072792e-09 -2.279919e-10
 3.233273e-06 -1.226247e-09 -2.590391e-10
 3.234675e-06 -1.388870e-09 -2.920240e-10
 3.236621e-06 -1.558725e-09 -3.267956e-10
 3.238421e-06 -1.732391e-09 -3.627206e-10
 3.976989e-06 -3.139809e-09 -5.028725e-10
 3.979617e-06 -3.412636e-09 -5.506379e-10
 3.982821e-06 -3.662699e-09 -5.963964e-10
 3.985880e-06 -3.877831e-09 -6.389473e-10
 3.989458e-06 -4.038979e-09 -6.743204e-10
 3.992806e-06 -4.129732e-09 -7.004612e-10
 3.996553e-06 -4.123832e-09 -7.109535e-10
 3.999908e-06 -4.001075e-09 -7.021124e-10
 4.003455e-06 -3.728827e-09 -6.628839e-10
 4.006347e-06 -3.291205e-09 -5.850473e-10
 4.009109e-06 -2.669598e-09 -4.547299e-10
 4.010866e-06 -1.892883e-09 -2.693697e-10
 4.012147e-06 -9.952095e-10 -3.056508e-11
 4.012352e-06 -3.736097e-10  9.368396e-11
 4.012541e-06 -8.847330e-11  8.593809e-11
 4.012328e-06  5.239264e-12  3.900665e-12
 4.012523e-06  9.620843e-11 -7.951844e-11
 4.012325e-06  3.734043e-10 -9.113606e-11
 4.012124e-06  9.834650e-10  2.718209e-11
 4.010867e-06  1.864922e-09  2.575628e-10
 4.009144e-06  2.642705e-09  4.448411e-10
 4.006410e-06  3.267337e-09  5.775600e-10
 4.003539e-06  3.710611e-09  6.580680e-10
 4.000008e-06  3.988388e-09  6.992560e-10
 3.996662e-06  4.115916e-09  7.093575e-10
 3.992919e-06  4.125921e-09  6.998323e-10
 3.989573e-06  4.038503e-09  6.743509e-10
 3.985993e-06  3.880087e-09  6.394851e-10
 3.982930e-06  3.667031e-09  5.972554e-10
 3.979721e-06  3.418539e-09  5.517312e-10
 3.977088e-06  3.146782e-09  5.040879e-10
 3.974342e-06  2.864604e-09  4.566389e-10
 3.972188e-06  2.580228e-09  4.100256e-10
 3.969923e-06  2.301481e-09  3.654309e-10
 3.968238e-06  2.033292e-09  3.231515e-10
 3.966425e-06  1.779802e-09  2.836854e-10
 3.965167e-06  1.543374e-09  2.470979e-10
 3.963752e-06  1.325562e-09  2.134937e-10
 3.962862e-06  1.126837e-09  1.827801e-10
 3.961785e-06  9.469988e-10  1.548440e-10
 3.961201e-06  7.851710e-10  1.294793e-10
 3.960401e-06  6.399906e-10  1.064504e-10
 3.960069e-06  5.096864e-10  8.547701e-11
 3.959495e-06  3.921842e-10  6.626195e-11
 3.959369e-06  2.851766e-10  4.847734e-11
 3.958985e-06  1.861871e-10  3.178886e-11
 3.959035e-06  9.261937e-11  1.583602e-11
 3.958818e-06  1.801830e-12  2.620404e-13
 3.959031e-06 -8.897447e-11 -1.531036e-11
 3.958977e-06 -1.824193e-10 -3.124162e-11
 3.959357e-06 -2.812070e-10 -4.790566e-11
 3.959479e-06 -3.879380e-10 -6.564640e-11
 3.960048e-06 -5.050959e-10 -8.481599e-11
 3.960376e-06 -6.349967e-10 -1.057260e-10
 3.961171e-06 -7.797270e-10 -1.286920e-10
 3.961749e-06 -9.410722e-10 -1.539786e-10
 3.962820e-06 -1.120416e-09 -1.818408e-10
 3.963704e-06 -1.318654e-09 -2.124697e-10
 3.965112e-06 -1.536019e-09 -2.459996e-10
 3.966363e-06 -1.772068e-09 -2.825088e-10
 3.968169e-06 -2.025293e-09 -3.219174e-10
 3.969846e-06 -2.293365e-09 -3.641453e-10
 3.972103e-06 -2.572210e-09 -4.087267e-10
 3.974251e-06 -2.856935e-09 -4.553486e-10
 4.577859e-06 -4.452430e-09 -6.037796e-10
 4.580789e-06 -4.832951e-09 -6.630680e-10
 4.584323e-06 -5.181259e-09 -7.212543e-10
 4.587741e-06 -5.475263e-09 -7.744527e-10
 4.591700e-06 -5.694391e-09 -8.208594e-10
 4.595447e-06 -5.807306e-09 -8.539705e-10
 4.599600e-06 -5.787591e-09 -8.704793e-10
 4.603359e-06 -5.594353e-09 -8.587721e-10
 4.607284e-06 -5.200795e-09 -8.101875e-10
 4.610511e-06 -4.573902e-09 -7.071938e-10
 4.613545e-06 -3.725051e-09 -5.428990e-10
 4.615501e-06 -2.699878e-09 -3.172228e-10
 4.616921e-06 -1.586930e-09 -4.593363e-11
 4.617205e-06 -7.450829e-10  1.005677e-10
 4.617436e-06 -2.653209e-10  9.533159e-11
 4.617232e-06  4.242391e-12  4.160887e-12
 4.617418e-06  2.706460e-10 -8.874656e-11
 4.617179e-06  7.421595e-10 -9.849591e-11
 4.616899e-06  1.573145e-09  4.175894e-11
 4.615504e-06  2.672324e-09  3.047808e-10
 4.613582e-06  3.695483e-09  5.311752e-10
 4.610579e-06  4.545206e-09  6.971801e-10
 4.607376e-06  5.177448e-09  8.030529e-10
 4.603468e-06  5.578072e-09  8.544471e-10
 4.599720e-06  5.777826e-09  8.680359e-10
 4.595573e-06  5.803064e-09  8.527609e-10
 4.591827e-06  5.694812e-09  8.205582e-10
 4.587867e-06  5.479416e-09  7.747661e-10
 4.584445e-06  5.188378e-09  7.220077e-10
 4.580905e-06  4.842259e-09  6.640921e-10
 4.577968e-06  4.463310e-09  6.049721e-10
 4.574951e-06  4.066322e-09  5.456662e-10
 4.572553e-06  3.665758e-09  4.882902e-10
 4.570074e-06  3.271242e-09  4.333494e-10
 4.568202e-06  2.891226e-09  3.818061e-10
 4.566227e-06  2.531106e-09  3.338222e-10
 4.564830e-06  2.194944e-09  2.896887e-10
 4.563298e-06  1.884891e-09  2.493408e-10
 4.562309e-06  1.601924e-09  2.127053e-10
 4.561150e-06  1.345794e-09  1.795588e-10
 4.560499e-06  1.115362e-09  1.496335e-10
 4.559644e-06  9.087225e-10  1.226123e-10
 4.559269e-06  7.233949e-10  9.814185e-11
 4.558662e-06  5.564383e-10  7.584979e-11
 4.558512e-06  4.045657e-10  5.533065e-11
 4.558111e-06  2.642316e-10  3.617044e-11
 4.558151e-06  1.317074e-10  1.792370e-11
 4.557931e-06  3.146768e-12  1.469068e-13
 4.558147e-06 -1.253553e-10 -1.762740e-11
 4.558102e-06 -2.577043e-10 -3.584829e-11
 4.558499e-06 -3.977511e-10 -5.497797e-11
 4.558645e-06 -5.492300e-10 -7.544398e-11
 4.559246e-06 -7.156972e-10 -9.767937e-11
 4.559617e-06 -9.004522e-10 -1.220723e-10
 4.560466e-06 -1.106454e-09 -1.490143e-10
 4.561110e-06 -1.336206e-09 -1.788433e-10
 4.562263e-06 -1.591639e-09 -2.118959e-10
 4.563245e-06 -1.873927e-09 -2.484259e-10
 4.564770e-06 -2.183360e-09 -2.886767e-10
 4.566159e-06 -2.519007e-09 -3.327119e-10
 4.568126e-06 -2.878771e-09 -3.806158e-10
 4.569989e-06 -3.258660e-09 -4.320952e-10
 4.572460e-06 -3.653336e-09 -4.870065e-10
 4.574850e-06 -4.054449e-09 -5.443981e-10
 5.076825e-06 -5.767720e-09 -6.975662e-10
 5.079973e-06 -6.256575e-09 -7.698719e-10
 5.083754e-06 -6.699151e-09 -8.400368e-10
 5.087443e-06 -7.072191e-09 -9.066048e-10
 5.091699e-06 -7.341210e-09 -9.634231e-10
 5.095761e-06 -7.475058e-09 -1.007786e-09
 5.100242e-06 -7.426686e-09 -1.028290e-09
 5.104325e-06 -7.160359e-09 -1.016382e-09
 5.108556e-06 -6.629678e-09 -9.527350e-10
 5.112048e-06 -5.825855e-09 -8.249185e-10
 5.115291e-06 -4.763357e-09 -6.235624e-10
 5.117398e-06 -3.537742e-09 -3.632857e-10
 5.118919e-06 -2.251363e-09 -6.928774e-11
 5.119275e-06 -1.210257e-09  9.346620e-11
 5.119536e-06 -4.984429e-10  9.648297e-11
 5.119345e-06  1.899030e-12  3.912787e-12
 5.119519e-06  4.996853e-10 -9.029777e-11
 5.119250e-06  1.204544e-09 -9.181002e-11
 5.118900e-06  2.236899e-09  6.483476e-11
 5.117402e-06  3.512841e-09  3.509538e-10
 5.115329e-06  4.734661e-09  6.109304e-10
 5.112118e-06  5.796059e-09  8.130363e-10
 5.108654e-06  6.603723e-09  9.434068e-10
 5.104442e-06  7.141517e-09  1.010271e-09
 5.100372e-06  7.415739e-09  1.024895e-09
 5.095896e-06  7.471075e-09  1.006134e-09
 5.091836e-06  7.343025e-09  9.628854e-10
 5.087578e-06  7.078781e-09  9.068791e-10
 5.083884e-06  6.709466e-09  8.408199e-10
 5.080097e-06  6.269740e-09  7.710119e-10
 5.076942e-06  5.782887e-09  6.988854e-10
 5.073732e-06  5.272546e-09  6.280411e-10
 5.071169e-06  4.754823e-09  5.592453e-10
 5.068549e-06  4.244512e-09  4.942607e-10
 5.066558e-06  3.751580e-09  4.333873e-10
 5.064484e-06  3.284149e-09  3.772725e-10
 5.063006e-06  2.847277e-09  3.258998e-10
 5.061408e-06  2.444248e-09  2.793051e-10
 5.060366e-06  2.076337e-09  2.372426e-10
 5.059165e-06  1.743387e-09  1.994337e-10
 5.058482e-06  1.443969e-09  1.655103e-10
 5.057603e-06  1.175679e-09  1.350805e-10
 5.057210e-06  9.353159e-10  1.077120e-10
 5.056590e-06  7.190663e-10  8.295673e-11
 5.056431e-06  5.226400e-10  6.032961e-11
 5.056024e-06  3.413923e-10  3.933433e-11
 5.056061e-06  1.704251e-10  1.943734e-11
 5.055840e-06  4.676745e-12  1.049022e-13
 5.056057e-06 -1.609950e-10 -1.922409e-11
 5.056015e-06 -3.317338e-10 -3.909085e-11
 5.056417e-06 -5.126066e-10 -6.004971e-11
 5.056572e-06 -7.085198e-10 -8.261407e-11
 5.057186e-06 -9.241319e-10 -1.073016e-10
 5.057574e-06 -1.163750e-09 -1.345780e-10
 5.058447e-06 -1.431212e-09 -1.649131e-10
 5.059124e-06 -1.729747e-09 -1.987207e-10
 5.060318e-06 -2.061797e-09 -2.364158e-10
 5.061352e-06 -2.428834e-09 -2.783488e-10
 5.062943e-06 -2.831071e-09 -3.248249e-10
 5.064412e-06 -3.267287e-09 -3.760724e-10
 5.066477e-06 -3.734281e-09 -4.320893e-10
 5.068459e-06 -4.227061e-09 -4.928735e-10
 5.071070e-06 -4.737617e-09 -5.578238e-10
 5.073624e-06 -5.256052e-09 -6.266199e-10
 5.495502e-06 -7.024790e-09 -7.916914e-10
 5.498810e-06 -7.615306e-09 -8.773583e-10
 5.502776e-06 -8.149612e-09 -9.630917e-10
 5.506684e-06 -8.592016e-09 -1.043274e-09
 5.511180e-06 -8.908238e-09 -1.116028e-09
 5.515510e-06 -9.047427e-09 -1.170441e-09
 5.520267e-06 -8.967111e-09 -1.198818e-09
 5.524630e-06 -8.610708e-09 -1.180817e-09
 5.529119e-06 -7.952598e-09 -1.101321e-09
 5.532830e-06 -6.979208e-09 -9.418605e-10
 5.536238e-06 -5.750501e-09 -7.047489e-10
 5.538460e-06 -4.367620e-09 -4.146348e-10
 5.540071e-06 -2.961067e-09 -1.088346e-10
 5.540492e-06 -1.733432e-09  6.772771e-11
 5.540800e-06 -7.754705e-10  8.562317e-11
 5.540620e-06 -9.438526e-13  3.323276e-12
 5.540786e-06  7.717545e-10 -8.049105e-11
 5.540470e-06  1.725031e-09 -6.655444e-11
 5.540054e-06  2.946778e-09  1.044517e-10
 5.538466e-06  4.346135e-09  4.028074e-10
 5.536277e-06  5.725163e-09  6.919754e-10
 5.532901e-06  6.951649e-09  9.289504e-10
 5.529219e-06  7.927115e-09  1.090222e-09
 5.524753e-06  8.591228e-09  1.172869e-09
 5.520404e-06  8.955714e-09  1.194113e-09
 5.515654e-06  9.044148e-09  1.168270e-09
 5.511326e-06  8.911865e-09  1.115386e-09
 5.506827e-06  8.601265e-09  1.043600e-09
 5.502914e-06  8.163344e-09  9.640782e-10
 5.498941e-06  7.632408e-09  8.787395e-10
 5.495624e-06  7.044333e-09  7.933081e-10
 5.492283e-06  6.423658e-09  7.087700e-10
 5.489612e-06  5.793859e-09  6.281914e-10
 5.486908e-06  5.171136e-09  5.520383e-10
 5.484852e-06  4.569471e-09  4.815994e-10
 5.482729e-06  3.998238e-09  4.169427e-10
 5.481217e-06  3.464392e-09  3.583250e-10
 5.479595e-06  2.971840e-09  3.054833e-10
 5.478539e-06  2.522396e-09  2.581357e-10
 5.477330e-06  2.115919e-09  2.158644e-10
 5.476646e-06  1.750765e-09  1.782194e-10
 5.475769e-06  1.424027e-09  1.447186e-10
 5.475379e-06  1.131804e-09  1.148469e-10
 5.474765e-06  8.694050e-10  8.807107e-11
 5.474610e-06  6.315361e-10  6.381735e-11
 5.474208e-06  4.124527e-10  4.149561e-11
 5.474248e-06  2.060922e-10  2.047418e-11
 5.474027e-06  6.189885e-12  1.199492e-13
 5.474243e-06 -1.936180e-10 -2.022967e-11
 5.474199e-06 -3.996969e-10 -4.121626e-11
 5.474597e-06 -6.183184e-10 -6.349474e-11
 5.474746e-06 -8.555556e-10 -8.767590e-11
 5.475355e-06 -1.117170e-09 -1.143717e-10
 5.475739e-06 -1.408478e-09 -1.441362e-10
 5.476610e-06 -1.734198e-09 -1.775248e-10
 5.477288e-06 -2.098270e-09 -2.150337e-10
 5.478489e-06 -2.503644e-09 -2.571679e-10
 5.479538e-06 -2.952021e-09 -3.043619e-10
 5.481151e-06 -3.443601e-09 -3.570561e-10
 5.482655e-06 -3.976655e-09 -4.155239e-10
 5.484768e-06 -4.547350e-09 -4.800511e-10
 5.486814e-06 -5.148847e-09 -5.503840e-10
 5.489509e-06 -5.771855e-09 -6.264754e-10
 5.492171e-06 -6.402540e-09 -7.070608e-10
 5.848363e-06 -8.159364e-09 -8.932161e-10
 5.851785e-06 -8.844460e-09 -9.967561e-10
 5.855902e-06 -9.457298e-09 -1.099411e-09
 5.859986e-06 -9.962097e-09 -1.200043e-09
 5.864697e-06 -1.030663e-08 -1.288538e-09
 5.869258e-06 -1.044397e-08 -1.358225e-09
 5.874270e-06 -1.031110e-08 -1.388672e-09
 5.878879e-06 -9.869778e-09 -1.363517e-09
 5.883595e-06 -9.085200e-09 -1.258769e-09
 5.887488e-06 -7.985777e-09 -1.065548e-09
 5.891031e-06 -6.634552e-09 -7.945521e-10
 5.893353e-06 -5.162748e-09 -4.853770e-10
 5.895049e-06 -3.659802e-09 -1.722925e-10
 5.895557e-06 -2.279066e-09  1.650262e-11
 5.895924e-06 -1.074404e-09  5.731446e-11
 5.895772e-06 -3.676580e-12  2.454478e-12
 5.895912e-06  1.066124e-09 -5.360886e-11
 5.895540e-06  2.268329e-09 -1.610302e-11
 5.895037e-06  3.646064e-09  1.679939e-10
 5.893362e-06  5.145030e-09  4.742534e-10
 5.891072e-06  6.613901e-09  7.822008e-10
 5.887560e-06  7.962940e-09  1.052417e-09
 5.883696e-06  9.063144e-09  1.246627e-09
 5.879005e-06  9.852128e-09  1.353981e-09
 5.874412e-06  1.030065e-08  1.382495e-09
 5.869409e-06  1.044181e-08  1.355162e-09
 5.864849e-06  1.031225e-08  1.287731e-09
 5.860136e-06  9.974126e-09  1.200544e-09
 5.856046e-06  9.474382e-09  1.100686e-09
 5.851921e-06  8.865407e-09  9.985381e-10
 5.848489e-06  8.183054e-09  8.952424e-10
 5.845058e-06  7.462583e-09  7.957416e-10
 5.842325e-06  6.728412e-09  7.005760e-10
 5.839579e-06  6.002547e-09  6.121319e-10
 5.837501e-06  5.300254e-09  5.305833e-10
 5.835371e-06  4.633748e-09  4.566308e-10
 5.833863e-06  4.010842e-09  3.899798e-10
 5.832254e-06  3.436511e-09  3.303931e-10
 5.831217e-06  2.912919e-09  2.773784e-10
 5.830032e-06  2.440062e-09  2.304316e-10
 5.829373e-06  2.016054e-09  1.889892e-10
 5.828521e-06  1.637501e-09  1.524727e-10
 5.828156e-06  1.299782e-09  1.202650e-10
 5.827562e-06  9.973317e-10  9.172682e-11
 5.827425e-06  7.238589e-10  6.617089e-11
 5.827036e-06  4.725511e-10  4.289158e-11
 5.827083e-06  2.362389e-10  2.114117e-11
 5.826866e-06  7.533169e-12  1.731219e-13
 5.827079e-06 -2.210607e-10 -2.078910e-11
 5.827027e-06 -4.570396e-10 -4.249900e-11
 5.827412e-06 -7.078013e-10 -6.572684e-11
 5.827544e-06 -9.805283e-10 -9.119848e-11
 5.828132e-06 -1.282053e-09 -1.196430e-10
 5.828492e-06 -1.618691e-09 -1.517257e-10
 5.829337e-06 -1.996045e-09 -1.881103e-10
 5.829990e-06 -2.418775e-09 -2.293924e-10
 5.831168e-06 -2.890332e-09 -2.761769e-10
 5.832197e-06 -3.412662e-09 -3.290063e-10
 5.833797e-06 -3.985849e-09 -3.884162e-10
 5.835296e-06 -4.607809e-09 -4.548791e-10
 5.837416e-06 -5.273679e-09 -5.286746e-10
 5.839484e-06 -5.975744e-09 -6.100771e-10
 5.842219e-06 -6.701932e-09 -6.984490e-10
 5.844942e-06 -7.437081e-09 -7.935927e-10
 6.145429e-06 -9.102435e-09 -1.012810e-09
 6.148941e-06 -9.863298e-09 -1.136837e-09
 6.153177e-06 -1.054066e-08 -1.264480e-09
 6.157424e-06 -1.108326e-08 -1.386450e-09
 6.162324e-06 -1.144209e-08 -1.497208e-09
 6.167112e-06 -1.155148e-08 -1.576548e-09
 6.172354e-06 -1.136489e-08 -1.608257e-09
 6.177195e-06 -1.083320e-08 -1.564733e-09
 6.182107e-06 -9.960067e-09 -1.430200e-09
 6.186157e-06 -8.774843e-09 -1.202207e-09
 6.189815e-06 -7.376365e-09 -9.080246e-10
 6.192234e-06 -5.854069e-09 -5.871532e-10
 6.194034e-06 -4.297158e-09 -2.677682e-10
 6.194648e-06 -2.785733e-09 -6.458995e-11
 6.195106e-06 -1.364875e-09  8.583672e-12
 6.194985e-06 -5.750400e-12  1.473474e-12
 6.195098e-06  1.353176e-09 -6.571414e-12
 6.194636e-06  2.773529e-09  6.402511e-11
 6.194028e-06  4.284291e-09  2.632688e-10
 6.192247e-06  5.839779e-09  5.765762e-10
 6.189857e-06  7.360925e-09  8.964243e-10
 6.186229e-06  8.758039e-09  1.189508e-09
 6.182209e-06  9.943653e-09  1.417820e-09
 6.177322e-06  1.081982e-08  1.554246e-09
 6.172500e-06  1.135725e-08  1.600754e-09
 6.167267e-06  1.155134e-08  1.572391e-09
 6.162482e-06  1.144978e-08  1.495888e-09
 6.157579e-06  1.109794e-08  1.387092e-09
 6.153326e-06  1.056087e-08  1.266171e-09
 6.149081e-06  9.887702e-09  1.139111e-09
 6.145558e-06  9.129842e-09  1.015404e-09
 6.142073e-06  8.323052e-09  8.955449e-10
 6.139310e-06  7.500432e-09  7.835705e-10
 6.136559e-06  6.685159e-09  6.796571e-10
 6.134493e-06  5.896685e-09  5.853049e-10
 6.132390e-06  5.148180e-09  5.001419e-10
 6.130919e-06  4.449216e-09  4.240731e-10
 6.129355e-06  3.805475e-09  3.565213e-10
 6.128367e-06  3.219689e-09  2.969252e-10
 6.127232e-06  2.691906e-09  2.446346e-10
 6.126623e-06  2.219989e-09  1.989728e-10
 6.125817e-06  1.799989e-09  1.592308e-10
 6.125493e-06  1.426538e-09  1.246517e-10
 6.124935e-06  1.093175e-09  9.444427e-11
 6.124825e-06  7.926508e-10  6.776693e-11
 6.124456e-06  5.171717e-10  4.376571e-11
 6.124516e-06  2.585973e-10  2.155292e-11
 6.124302e-06  8.585622e-12  2.508861e-13
 6.124512e-06 -2.412984e-10 -2.104333e-11
 6.124448e-06 -4.994920e-10 -4.320895e-11
 6.124813e-06 -7.743474e-10 -6.714832e-11
 6.124917e-06 -1.074021e-09 -9.372673e-11
 6.125470e-06 -1.406327e-09 -1.238233e-10
 6.125789e-06 -1.778546e-09 -1.582567e-10
 6.126588e-06 -2.197175e-09 -1.978424e-10
 6.127191e-06 -2.667633e-09 -2.433161e-10
 6.128319e-06 -3.193926e-09 -2.954115e-10
 6.129298e-06 -3.778265e-09 -3.547877e-10
 6.130853e-06 -4.420685e-09 -4.221203e-10
 6.132315e-06 -5.118555e-09 -4.979634e-10
 6.134408e-06 -5.866297e-09 -5.829193e-10
 6.136463e-06 -6.654478e-09 -6.770962e-10
 6.139203e-06 -7.470043e-09 -7.808900e-10
 6.141954e-06 -8.293714e-09 -8.928461e-10
 6.393871e-06 -9.770070e-09 -1.157368e-09
 6.397448e-06 -1.058341e-08 -1.310831e-09
 6.401796e-06 -1.129303e-08 -1.465342e-09
 6.406189e-06 -1.185018e-08 -1.616139e-09
 6.411284e-06 -1.219029e-08 -1.743548e-09
 6.416284e-06 -1.226253e-08 -1.832145e-09
 6.421756e-06 -1.201006e-08 -1.852443e-09
 6.426801e-06 -1.141872e-08 -1.784598e-09
 6.431888e-06 -1.049150e-08 -1.616975e-09
 6.436070e-06 -9.294892e-09 -1.364390e-09
 6.439839e-06 -7.892982e-09 -1.056373e-09
 6.442372e-06 -6.377992e-09 -7.271543e-10
 6.444302e-06 -4.789873e-09 -3.996381e-10
 6.445055e-06 -3.195933e-09 -1.751832e-10
 6.445623e-06 -1.599285e-09 -5.726528e-11
 6.445550e-06 -6.847564e-12  4.818750e-13
 6.445618e-06  1.585912e-09  5.753219e-11
 6.445049e-06  3.183394e-09  1.734551e-10
 6.444302e-06  4.778409e-09  3.947031e-10
 6.442391e-06  6.367295e-09  7.167974e-10
 6.439886e-06  7.882624e-09  1.045482e-09
 6.436144e-06  9.284532e-09  1.352527e-09
 6.431991e-06  1.048182e-08  1.605058e-09
 6.426929e-06  1.141136e-08  1.773945e-09
 6.421903e-06  1.200705e-08  1.844188e-09
 6.416443e-06  1.226565e-08  1.826988e-09
 6.411447e-06  1.220047e-08  1.741513e-09
 6.406350e-06  1.186723e-08  1.616613e-09
 6.401950e-06  1.131591e-08  1.467437e-09
 6.397591e-06  1.061069e-08  1.313731e-09
 6.394003e-06  9.800478e-09  1.160624e-09
 6.390482e-06  8.933548e-09  1.016801e-09
 6.387717e-06  8.044149e-09  8.824719e-10
 6.384985e-06  7.161884e-09  7.603532e-10
 6.382959e-06  6.307294e-09  6.497464e-10
 6.380911e-06  5.496435e-09  5.508732e-10
 6.379507e-06  4.740033e-09  4.630443e-10
 6.378016e-06  4.044923e-09  3.856961e-10
 6.377105e-06  3.414218e-09  3.180807e-10
 6.376045e-06  2.847962e-09  2.594248e-10
 6.375506e-06  2.343611e-09  2.088823e-10
 6.374765e-06  1.896559e-09  1.655509e-10
 6.374497e-06  1.500616e-09  1.284543e-10
 6.373985e-06  1.148446e-09  9.657907e-11
 6.373911e-06  8.319412e-10  6.887420e-11
 6.373568e-06  5.425102e-10  4.429733e-11
 6.373643e-06  2.712870e-10  2.179438e-11
 6.373435e-06  9.266216e-12  3.413797e-13
 6.373639e-06 -2.526141e-10 -2.110166e-11
 6.373560e-06 -5.234186e-10 -4.354945e-11
 6.373900e-06 -8.121622e-10 -6.805210e-11
 6.373969e-06 -1.127727e-09 -9.563975e-11
 6.374476e-06 -1.478729e-09 -1.273817e-10
 6.374739e-06 -1.873308e-09 -1.643060e-10
 6.375474e-06 -2.318842e-09 -2.074519e-10
 6.376006e-06 -2.821571e-09 -2.577708e-10
 6.377058e-06 -3.386167e-09 -3.161934e-10
 6.377961e-06 -4.015251e-09 -3.835421e-10
 6.379443e-06 -4.708876e-09 -4.606258e-10
 6.380837e-06 -5.464028e-09 -5.481704e-10
 6.382875e-06 -6.274002e-09 -6.467922e-10
 6.384889e-06 -7.128190e-09 -7.571592e-10
 6.387609e-06 -8.010703e-09 -8.791352e-10
 6.390362e-06 -8.901134e-09 -1.013399e-09
 6.598938e-06 -1.007185e-08 -1.337470e-09
 6.602580e-06 -1.089650e-08 -1.522508e-09
 6.607030e-06 -1.160443e-08 -1.711640e-09
 6.611583e-06 -1.213552e-08 -1.885356e-09
 6.616864e-06 -1.243858e-08 -2.029307e-09
 6.622084e-06 -1.245488e-08 -2.113074e-09
 6.627763e-06 -1.215897e-08 -2.115423e-09
 6.632997e-06 -1.153532e-08 -2.018296e-09
 6.638228e-06 -1.062202e-08 -1.827506e-09
 6.642534e-06 -9.457040e-09 -1.560464e-09
 6.646426e-06 -8.114044e-09 -1.243046e-09
 6.649101e-06 -6.637500e-09 -9.068200e-10
 6.651193e-06 -5.073632e-09 -5.644472e-10
 6.652113e-06 -3.434868e-09 -3.076114e-10
 6.652810e-06 -1.741120e-09 -1.322194e-10
 6.652787e-06 -6.865203e-12 -4.388850e-13
 6.652809e-06  1.727956e-09  1.307999e-10
 6.652113e-06  3.423345e-09  3.046482e-10
 6.651200e-06  5.064366e-09  5.588685e-10
 6.649127e-06  6.630374e-09  8.964378e-10
 6.646478e-06  8.108679e-09  1.232633e-09
 6.642612e-06  9.452805e-09  1.549453e-09
 6.638332e-06  1.061918e-08  1.816495e-09
 6.633125e-06  1.153465e-08  2.008186e-09
 6.627910e-06  1.216171e-08  2.107165e-09
 6.622244e-06  1.246238e-08  2.107450e-09
 6.617030e-06  1.245182e-08  2.026642e-09
 6.611747e-06  1.215483e-08  1.885489e-09
 6.607187e-06  1.162929e-08  1.713880e-09
 6.602726e-06  1.092582e-08  1.526042e-09
 6.599071e-06  1.010431e-08  1.341531e-09
 6.595531e-06  9.211096e-09  1.165354e-09
 6.592775e-06  8.289085e-09  1.004737e-09
 6.590083e-06  7.369256e-09  8.585872e-10
 6.588121e-06  6.477126e-09  7.277101e-10
 6.586154e-06  5.630749e-09  6.111565e-10
 6.584844e-06  4.842972e-09  5.084721e-10
 6.583453e-06  4.121427e-09  4.188382e-10
 6.582642e-06  3.469490e-09  3.414018e-10
 6.581679e-06  2.886899e-09  2.751657e-10
 6.581229e-06  2.370486e-09  2.190090e-10
 6.580566e-06  1.914836e-09  1.716989e-10
 6.580364e-06  1.512928e-09  1.319248e-10
 6.579906e-06  1.156669e-09  9.836094e-11
 6.579874e-06  8.373274e-10  6.968380e-11
 6.579560e-06  5.458343e-10  4.462151e-11
 6.579652e-06  2.729819e-10  2.193219e-11
 6.579450e-06  9.524784e-12  4.351207e-13
 6.579649e-06 -2.537847e-10 -2.104938e-11
 6.579553e-06 -5.261962e-10 -4.367528e-11
 6.579863e-06 -8.169626e-10 -6.864913e-11
 6.579891e-06 -1.135305e-09 -9.718789e-11
 6.580344e-06 -1.490316e-09 -1.305902e-10
 6.580541e-06 -1.890761e-09 -1.701571e-10
 6.581198e-06 -2.344776e-09 -2.172423e-10
 6.581643e-06 -2.859439e-09 -2.731332e-10
 6.582598e-06 -3.440229e-09 -3.390861e-10
 6.583401e-06 -4.090400e-09 -4.162033e-10
 6.584782e-06 -4.810311e-09 -5.055082e-10
 6.586083e-06 -5.596701e-09 -6.078505e-10
 6.588038e-06 -6.442059e-09 -7.240763e-10
 6.589989e-06 -7.333685e-09 -8.546675e-10
 6.592667e-06 -8.253665e-09 -1.000603e-09
 6.595410e-06 -9.176659e-09 -1.161155e-09
 6.764553e-06 -9.905534e-09 -1.555802e-09
 6.768264e-06 -1.069756e-08 -1.777004e-09
 6.772841e-06 -1.135641e-08 -1.992567e-09
 6.777551e-06 -1.183419e-08 -2.188767e-09
 6.783034e-06 -1.207571e-08 -2.333954e-09