# vtk DataFile Version 2.0
Generated by ludwig extract.c
ASCII
DATASET STRUCTURED_POINTS
DIMENSIONS 64 32 32
ORIGIN 0 0 0
SPACING 1 1 1
POINT_DATA 65536
VECTORS velocity_field float
 1.109954e-06 -2.339034e-10 -2.339034e-10
 1.110701e-06 -2.594849e-10 -2.594848e-10
 1.111883e-06 -2.841518e-10 -2.841518e-10
 1.112780e-06 -3.064412e-10 -3.064412e-10
 1.114096e-06 -3.252169e-10 -3.252168e-10
 1.115101e-06 -3.381944e-10 -3.381944e-10
 1.116488e-06 -3.437422e-10 -3.437422e-10
 1.117513e-06 -3.385721e-10 -3.385721e-10
 1.118852e-06 -3.205354e-10 -3.205353e-10
 1.119741e-06 -2.850847e-10 -2.850847e-10
 1.120835e-06 -2.290061e-10 -2.290061e-10
 1.121344e-06 -1.462184e-10 -1.462184e-10
 1.121900e-06 -3.500413e-11 -3.500410e-11
 1.121816e-06  2.414083e-11  2.414083e-11
 1.121966e-06  2.882205e-11  2.882211e-11
 1.121759e-06  2.333186e-12  2.333137e-12
 1.121959e-06 -2.453435e-11 -2.453435e-11
 1.121803e-06 -2.115396e-11 -2.115396e-11
 1.121887e-06  3.546010e-11  3.546008e-11
 1.121343e-06  1.418118e-10  1.418118e-10
 1.120848e-06  2.268039e-10  2.268039e-10
 1.119764e-06  2.840992e-10  2.840992e-10
 1.118881e-06  3.203943e-10  3.203943e-10
 1.117547e-06  3.390643e-10  3.390644e-10
 1.116525e-06  3.447617e-10  3.447617e-10
 1.115139e-06  3.396224e-10  3.396224e-10
 1.114134e-06  3.269756e-10  3.269756e-10
 1.112817e-06  3.084444e-10  3.084445e-10
 1.111919e-06  2.863403e-10  2.863402e-10
 1.110735e-06  2.617999e-10  2.617999e-10
 1.109986e-06  2.363026e-10  2.363025e-10
 1.108961e-06  2.105845e-10  2.105845e-10
 1.108374e-06  1.855176e-10  1.855176e-10
 1.107510e-06  1.615358e-10  1.615359e-10
 1.107079e-06  1.390955e-10  1.390956e-10
 1.106363e-06  1.184082e-10  1.184082e-10
 1.106073e-06  9.965340e-11  9.965345e-11
 1.105488e-06  8.288098e-11  8.288100e-11
 1.105318e-06  6.809041e-11  6.809043e-11
 1.104843e-06  5.521504e-11  5.521507e-11
 1.104773e-06  4.413861e-11  4.413863e-11
 1.104389e-06  3.471322e-11  3.471324e-11
 1.104401e-06  2.674934e-11  2.674933e-11
 1.104090e-06  2.004402e-11  2.004404e-11
 1.104170e-06  1.436274e-11  1.436273e-11
 1.103921e-06  9.467587e-12  9.467559e-12
 1.104059e-06  5.099355e-12  5.099355e-12
 1.103866e-06  1.001664e-12  1.001730e-12
 1.104058e-06 -3.094233e-12 -3.094153e-12
 1.103919e-06 -7.448812e-12 -7.448729e-12
 1.104166e-06 -1.232690e-11 -1.232683e-11
 1.104085e-06 -1.798003e-11 -1.797997e-11
 1.104394e-06 -2.465475e-11 -2.465470e-11
 1.104381e-06 -3.257828e-11 -3.257825e-11
 1.104764e-06 -4.196261e-11 -4.196262e-11
 1.104832e-06 -5.299058e-11 -5.299059e-11
 1.105305e-06 -6.581932e-11 -6.581933e-11
 1.105473e-06 -8.055976e-11 -8.055980e-11
 1.106056e-06 -9.728777e-11 -9.728775e-11
 1.106344e-06 -1.160000e-10 -1.160000e-10
 1.107057e-06 -1.366558e-10 -1.366558e-10
 1.107485e-06 -1.590745e-10 -1.590745e-10
 1.108347e-06 -1.830531e-10 -1.830531e-10
 1.108931e-06 -2.081383e-10 -2.081383e-10
 2.304523e-06 -7.762261e-10 -2.380126e-10
 2.306136e-06 -8.556567e-10 -2.650650e-10
 2.308255e-06 -9.306498e-10 -2.911764e-10
 2.310152e-06 -9.984511e-10 -3.156674e-10
 2.312523e-06 -1.053070e-09 -3.363563e-10
 2.314621e-06 -1.090603e-09 -3.521343e-10
 2.317119e-06 -1.102268e-09 -3.595578e-10
 2.319245e-06 -1.083070e-09 -3.568943e-10
 2.321641e-06 -1.021129e-09 -3.390862e-10
 2.323502e-06 -9.107859e-10 -3.030096e-10
 2.325432e-06 -7.377943e-10 -2.406856e-10
 2.326587e-06 -5.054264e-10 -1.463965e-10
 2.327511e-06 -1.722626e-10 -8.294049e-12
 2.327544e-06  5.124460e-12  5.615916e-11
 2.327695e-06  4.481862e-11  4.988615e-11
 2.327476e-06  3.440859e-12  2.713340e-12
 2.327682e-06 -3.892534e-11 -4.502402e-11
 2.327522e-06 -2.390668e-12 -5.296978e-11
 2.327490e-06  1.698674e-10  8.020595e-12
 2.326585e-06  4.898764e-10  1.394574e-10
 2.325457e-06  7.284983e-10  2.368694e-10
 2.323545e-06  9.036650e-10  3.009910e-10
 2.321697e-06  1.016147e-09  3.381187e-10
 2.319309e-06  1.079892e-09  3.567710e-10
 2.317189e-06  1.100531e-09  3.600235e-10
 2.314693e-06  1.090105e-09  3.530915e-10
 2.312596e-06  1.053518e-09  3.376545e-10
 2.310224e-06  9.996711e-10  3.172398e-10
 2.308324e-06  9.324208e-10  2.929261e-10
 2.306201e-06  8.578408e-10  2.669493e-10
 2.304585e-06  7.786693e-10  2.399695e-10
 2.302765e-06  6.987259e-10  2.133081e-10
 2.301459e-06  6.197766e-10  1.873441e-10
 2.299949e-06  5.440059e-10  1.627957e-10
 2.298945e-06  4.724048e-10  1.398488e-10
 2.297723e-06  4.060381e-10  1.188393e-10
 2.296991e-06  3.453045e-10  9.981178e-11
 2.296023e-06  2.905285e-10  8.286434e-11
 2.295525e-06  2.416710e-10  6.793467e-11
 2.294772e-06  1.985809e-10  5.497304e-11
 2.294468e-06  1.609090e-10  4.383659e-11
 2.293891e-06  1.282056e-10  3.438213e-11
 2.293746e-06  9.991027e-11  2.640671e-11
 2.293313e-06  7.538935e-11  1.970750e-11
 2.293300e-06  5.394988e-11  1.404130e-11
 2.292987e-06  3.485689e-11  9.170845e-12
 2.293086e-06  1.734720e-11  4.830213e-12
 2.292880e-06  6.391970e-13  7.643504e-13
 2.293084e-06 -1.605697e-11 -3.301241e-12
 2.292982e-06 -3.353148e-11 -7.626337e-12
 2.293292e-06 -5.256645e-11 -1.248113e-11
 2.293303e-06 -7.392644e-11 -1.811722e-11
 2.293734e-06 -9.834805e-11 -2.478684e-11
 2.293875e-06 -1.265266e-10 -3.271952e-11
 2.294449e-06 -1.590989e-10 -4.213352e-11
 2.294749e-06 -1.966289e-10 -5.321861e-11
 2.295499e-06 -2.395719e-10 -6.613405e-11
 2.295993e-06 -2.882818e-10 -8.100976e-11
 2.296957e-06 -3.429189e-10 -9.791245e-11
 2.297685e-06 -4.035282e-10 -1.168921e-10
 2.298901e-06 -4.697996e-10 -1.378693e-10
 2.299901e-06 -5.413408e-10 -1.607872e-10
 2.301406e-06 -6.171102e-10 -1.853315e-10
 2.302708e-06 -6.961214e-10 -2.113036e-10
 3.222249e-06 -1.779654e-09 -3.215302e-10
 3.224462e-06 -1.949921e-09 -3.577407e-10
 3.227229e-06 -2.110162e-09 -3.935157e-10
 3.229819e-06 -2.250745e-09 -4.266542e-10
 3.232915e-06 -2.363250e-09 -4.559425e-10
 3.235765e-06 -2.433449e-09 -4.776650e-10
 3.239023e-06 -2.450177e-09 -4.897921e-10
 3.241901e-06 -2.394140e-09 -4.864874e-10
 3.245014e-06 -2.251975e-09 -4.641965e-10
 3.247528e-06 -2.000885e-09 -4.129989e-10
 3.250011e-06 -1.635210e-09 -3.263986e-10
 3.251578e-06 -1.143375e-09 -1.918683e-10
 3.252774e-06 -5.265905e-10 -6.391324e-12
 3.252952e-06 -1.332559e-10  8.478409e-11
 3.253157e-06  4.551959e-12  7.268053e-11
 3.252946e-06  4.714354e-12  3.308191e-12
 3.253141e-06  3.057325e-12 -6.686540e-11
 3.252927e-06  1.353273e-10 -8.169021e-11
 3.252753e-06  5.190848e-10  4.541472e-12
 3.251579e-06  1.119449e-09  1.820718e-10
 3.250043e-06  1.615998e-09  3.195132e-10
 3.247584e-06  1.985627e-09  4.086093e-10
 3.245087e-06  2.240656e-09  4.616191e-10
 3.241985e-06  2.386335e-09  4.851144e-10
 3.239115e-06  2.445419e-09  4.893292e-10
 3.235860e-06  2.431173e-09  4.778524e-10
 3.233012e-06  2.363051e-09  4.566323e-10
 3.229913e-06  2.252147e-09  4.276894e-10
 3.227321e-06  2.112815e-09  3.948029e-10
 3.224550e-06  1.953459e-09  3.591867e-10
 3.222332e-06  1.783810e-09  3.230758e-10
 3.219961e-06  1.609650e-09  2.871641e-10
 3.218156e-06  1.437023e-09  2.526653e-10
 3.216198e-06  1.269503e-09  2.199433e-10
 3.214795e-06  1.110428e-09  1.895724e-10
 3.213223e-06  9.616520e-10  1.616969e-10
 3.212184e-06  8.246272e-10  1.365054e-10
 3.210951e-06  6.999302e-10  1.139874e-10
 3.210225e-06  5.877438e-10  9.410309e-11
 3.209278e-06  4.877380e-10  7.672991e-11
 3.208813e-06  3.992690e-10  6.169270e-11
 3.208102e-06  3.213867e-10  4.878472e-11
 3.207849e-06  2.529209e-10  3.774774e-11
 3.207331e-06  1.925260e-10  2.831727e-11
 3.207254e-06  1.387254e-10  2.018771e-11
 3.206896e-06  8.995162e-11  1.305761e-11
 3.206969e-06  4.456967e-11  6.594701e-12
 3.206754e-06  9.071181e-13  4.762232e-13
 3.206966e-06 -4.273075e-11 -5.641053e-12
 3.206890e-06 -8.803650e-11 -1.208516e-11
 3.207244e-06 -1.366868e-10 -1.919453e-11
 3.207318e-06 -1.903165e-10 -2.728633e-11
 3.207832e-06 -2.504996e-10 -3.667828e-11
 3.208081e-06 -3.187153e-10 -4.766119e-11
 3.208788e-06 -3.963183e-10 -6.051608e-11
 3.209248e-06 -4.844857e-10 -7.548774e-11
 3.210190e-06 -5.841799e-10 -9.279915e-11
 3.210911e-06 -6.960570e-10 -1.126136e-10
 3.212138e-06 -8.204633e-10 -1.350698e-10
 3.213171e-06 -9.572366e-10 -1.601982e-10
 3.214738e-06 -1.105820e-09 -1.880250e-10
 3.216134e-06 -1.264795e-09 -2.183564e-10
 3.218086e-06 -1.432328e-09 -2.510624e-10
 3.219885e-06 -1.605133e-09 -2.855711e-10
 3.951337e-06 -3.005867e-09 -4.215078e-10
 3.953972e-06 -3.283382e-09 -4.694346e-10
 3.957198e-06 -3.540486e-09 -5.162248e-10
 3.960278e-06 -3.765020e-09 -5.607134e-10
 3.963894e-06 -3.938082e-09 -5.990354e-10
 3.967279e-06 -4.043095e-09 -6.291476e-10
 3.971083e-06 -4.053866e-09 -6.447628e-10
 3.974498e-06 -3.949734e-09 -6.421582e-10
 3.978124e-06 -3.697920e-09 -6.104193e-10
 3.981098e-06 -3.281524e-09 -5.412287e-10
 3.983962e-06 -2.681098e-09 -4.207643e-10
 3.985821e-06 -1.923017e-09 -2.460409e-10
 3.987216e-06 -1.038339e-09 -1.785281e-11
 3.987514e-06 -4.140043e-10  9.947291e-11
 3.987775e-06 -1.124285e-10  8.798011e-11
 3.987582e-06  5.141311e-12  3.874821e-12
 3.987758e-06  1.200381e-10 -8.158366e-11
 3.987489e-06  4.138810e-10 -9.687075e-11
 3.987195e-06  1.026990e-09  1.464908e-11
 3.985824e-06  1.895927e-09  2.346086e-10
 3.983999e-06  2.655136e-09  4.112126e-10
 3.981162e-06  3.258598e-09  5.340282e-10
 3.978208e-06  3.680573e-09  6.058315e-10
 3.974597e-06  3.937825e-09  6.394852e-10
 3.971191e-06  4.046641e-09  6.433222e-10
 3.967391e-06  4.039893e-09  6.286506e-10
 3.964007e-06  3.938140e-09  5.991810e-10
 3.960389e-06  3.767739e-09  5.613513e-10
 3.957306e-06  3.545219e-09  5.171725e-10
 3.954075e-06  3.289630e-09  4.706062e-10
 3.951433e-06  3.013141e-09  4.227927e-10
 3.948676e-06  2.728408e-09  3.759693e-10
 3.946522e-06  2.443561e-09  3.307312e-10
 3.944252e-06  2.166236e-09  2.882092e-10
 3.942573e-06  1.901224e-09  2.486490e-10
 3.940758e-06  1.652484e-09  2.125112e-10
 3.939509e-06  1.422227e-09  1.798081e-10
 3.938094e-06  1.211842e-09  1.506132e-10
 3.937214e-06  1.021647e-09  1.247793e-10
 3.936137e-06  8.512950e-10  1.021626e-10
 3.935563e-06  6.997744e-10  8.250218e-11
 3.934763e-06  5.655933e-10  6.552847e-11
 3.934438e-06  4.468629e-10  5.090551e-11
 3.933864e-06  3.413983e-10  3.829746e-11
 3.933744e-06  2.467898e-10  2.732021e-11
 3.933358e-06  1.604642e-10  1.759560e-11
 3.933413e-06  7.973446e-11  8.707851e-12
 3.933193e-06  1.840961e-12  2.521316e-13
 3.933409e-06 -7.601101e-11 -8.202099e-12
 3.933350e-06 -1.566169e-10 -1.706637e-11
 3.933733e-06 -2.427390e-10 -2.676485e-11
 3.933848e-06 -3.370686e-10 -3.769461e-11
 3.934418e-06 -4.421857e-10 -5.025379e-11
 3.934738e-06 -5.605084e-10 -6.480824e-11
 3.935533e-06 -6.942339e-10 -8.171423e-11
 3.936102e-06 -8.452651e-10 -1.012904e-10
 3.937173e-06 -1.015113e-09 -1.238276e-10
 3.938047e-06 -1.204811e-09 -1.495699e-10
 3.939455e-06 -1.414737e-09 -1.786843e-10
 3.940698e-06 -1.644599e-09 -2.113019e-10
 3.942505e-06 -1.893053e-09 -2.473755e-10
 3.944177e-06 -2.157924e-09 -2.868770e-10
 3.946439e-06 -2.435317e-09 -3.293785e-10
 3.948586e-06 -2.720480e-09 -3.746177e-10
 4.545330e-06 -4.318454e-09 -5.208886e-10
 4.548269e-06 -4.706160e-09 -5.805463e-10
 4.551826e-06 -5.064404e-09 -6.399991e-10
 4.555267e-06 -5.371271e-09 -6.954994e-10
 4.559266e-06 -5.606047e-09 -7.452291e-10
 4.563055e-06 -5.737475e-09 -7.828526e-10
 4.567269e-06 -5.738681e-09 -8.049990e-10
 4.571094e-06 -5.568649e-09 -8.002513e-10
 4.575106e-06 -5.199565e-09 -7.598416e-10
 4.578425e-06 -4.597661e-09 -6.664104e-10
 4.581571e-06 -3.771894e-09 -5.127288e-10
 4.583641e-06 -2.765036e-09 -2.983251e-10
 4.585185e-06 -1.660867e-09 -3.766687e-11
 4.585572e-06 -8.091633e-10  1.026107e-10
 4.585881e-06 -3.020708e-10  9.529175e-11
 4.585699e-06  4.111166e-12  4.113376e-12
 4.585865e-06  3.072207e-10 -8.876448e-11
 4.585547e-06  8.062974e-10 -1.005016e-10
 4.585165e-06  1.647461e-09  3.366567e-11
 4.583646e-06  2.738299e-09  2.862524e-10
 4.581610e-06  3.743312e-09  5.013695e-10
 4.578493e-06  4.570054e-09  6.567334e-10
 4.575198e-06  5.177279e-09  7.529857e-10
 4.571203e-06  5.553329e-09  7.961431e-10
 4.567388e-06  5.729767e-09  8.027303e-10
 4.563179e-06  5.733977e-09  7.817894e-10
 4.559391e-06  5.607110e-09  7.450512e-10
 4.555391e-06  5.375972e-09  6.959188e-10
 4.551946e-06  5.071986e-09  6.408432e-10
 4.548383e-06  4.715856e-09  5.816493e-10
 4.545437e-06  4.329656e-09  5.221490e-10
 4.542408e-06  3.928128e-09  4.633500e-10
 4.540011e-06  3.525516e-09  4.072611e-10
 4.537527e-06  3.131295e-09  3.543652e-10
 4.535662e-06  2.753683e-09  3.055421e-10
 4.533687e-06  2.397883e-09  2.609264e-10
 4.532299e-06  2.067736e-09  2.207417e-10
 4.530768e-06  1.765187e-09  1.848925e-10
 4.529790e-06  1.491013e-09  1.532454e-10
 4.528632e-06  1.244779e-09  1.255440e-10
 4.527991e-06  1.025171e-09  1.014632e-10
 4.527137e-06  8.301279e-10  8.064906e-11
 4.526770e-06  6.570237e-10  6.269043e-11
 4.526163e-06  5.027881e-10  4.717339e-11
 4.526019e-06  3.640171e-10  3.363491e-11
 4.525616e-06  2.370593e-10  2.161500e-11
 4.525662e-06  1.180891e-10  1.061185e-11
 4.525438e-06  3.169989e-12  1.328833e-13
 4.525658e-06 -1.116906e-10 -1.034372e-11
 4.525608e-06 -2.304851e-10 -2.131899e-11
 4.526007e-06 -3.571548e-10 -3.330657e-11
 4.526146e-06 -4.955309e-10 -4.678821e-11
 4.526748e-06 -6.492750e-10 -6.224516e-11
 4.527110e-06 -8.218034e-10 -8.012100e-11
 4.527958e-06 -1.016204e-09 -1.008512e-10
 4.528593e-06 -1.235125e-09 -1.248293e-10
 4.529745e-06 -1.480654e-09 -1.524308e-10
 4.530717e-06 -1.754137e-09 -1.839653e-10
 4.532241e-06 -2.056049e-09 -2.197107e-10
 4.533620e-06 -2.385662e-09 -2.597896e-10
 4.535588e-06 -2.741079e-09 -3.043180e-10
 4.537445e-06 -3.118532e-09 -3.530692e-10
 4.539920e-06 -3.512875e-09 -4.059277e-10
 4.542309e-06 -3.915988e-09 -4.620231e-10
 5.037736e-06 -5.636673e-09 -6.142924e-10
 5.040891e-06 -6.135011e-09 -6.871237e-10
 5.044695e-06 -6.590334e-09 -7.588229e-10
 5.048408e-06 -6.979307e-09 -8.279495e-10
 5.052706e-06 -7.267564e-09 -8.885029e-10
 5.056811e-06 -7.423563e-09 -9.377380e-10
 5.061357e-06 -7.400194e-09 -9.644510e-10
 5.065510e-06 -7.160788e-09 -9.600161e-10
 5.069835e-06 -6.658349e-09 -9.053386e-10
 5.073426e-06 -5.881898e-09 -7.877999e-10
 5.076791e-06 -4.843501e-09 -5.978572e-10
 5.079021e-06 -3.633945e-09 -3.491752e-10
 5.080675e-06 -2.351287e-09 -6.559917e-11
 5.081141e-06 -1.293330e-09  9.182798e-11
 5.081487e-06 -5.455309e-10  9.435542e-11
 5.081321e-06  1.772412e-12  3.855360e-12
 5.081472e-06  5.465963e-10 -8.824977e-11
 5.081118e-06  1.287655e-09 -9.015314e-11
 5.080658e-06  2.337149e-09  6.130170e-11
 5.079027e-06  3.609739e-09  3.371893e-10
 5.076831e-06  4.815736e-09  5.855933e-10
 5.073497e-06  5.853215e-09  7.762857e-10
 5.069932e-06  6.633552e-09  8.963340e-10
 5.065627e-06  7.143037e-09  9.541629e-10
 5.061486e-06  7.390215e-09  9.612522e-10
 5.056945e-06  7.420419e-09  9.362430e-10
 5.052841e-06  7.270096e-09  8.880949e-10
 5.048541e-06  6.986497e-09  8.283308e-10
 5.044824e-06  6.601145e-09  7.596962e-10
 5.041013e-06  6.148577e-09  6.883392e-10
 5.037850e-06  5.652160e-09  6.156753e-10
 5.034629e-06  5.135314e-09  5.451898e-10
 5.032068e-06  4.614035e-09  4.776043e-10
 5.029444e-06  4.102853e-09  4.146029e-10
 5.027461e-06  3.611525e-09  3.564295e-10
 5.025388e-06  3.147896e-09  3.036777e-10
 5.023921e-06  2.716777e-09  2.562710e-10
 5.022325e-06  2.321190e-09  2.142040e-10
 5.021294e-06  1.962170e-09  1.771722e-10
 5.020095e-06  1.639333e-09  1.448605e-10
 5.019423e-06  1.351042e-09  1.168414e-10
 5.018545e-06  1.094704e-09  9.268428e-11
 5.018160e-06  8.669509e-10  7.189661e-11
 5.017541e-06  6.638210e-10  5.398760e-11
 5.017388e-06  4.808961e-10  3.841309e-11
 5.016980e-06  3.134196e-10  2.463037e-11
 5.017022e-06  1.563954e-10  1.204885e-11
 5.016798e-06  4.673473e-12  8.611167e-14
 5.017018e-06 -1.469720e-10 -1.187349e-11
 5.016971e-06 -3.037681e-10 -2.442266e-11
 5.017375e-06 -4.708698e-10 -3.816715e-11
 5.017523e-06 -6.532816e-10 -5.367523e-11
 5.018138e-06 -8.557732e-10 -7.151303e-11
 5.018517e-06 -1.082780e-09 -9.220322e-11
 5.019389e-06 -1.338287e-09 -1.162608e-10
 5.020055e-06 -1.625688e-09 -1.441575e-10
 5.021247e-06 -1.947617e-09 -1.763494e-10
 5.022270e-06 -2.305749e-09 -2.132444e-10
 5.023859e-06 -2.700526e-09 -2.551858e-10
 5.025318e-06 -3.130965e-09 -3.024596e-10
 5.027382e-06 -3.594125e-09 -3.551056e-10
 5.029357e-06 -4.085263e-09 -4.131815e-10
 5.031971e-06 -4.596640e-09 -4.761396e-10
 5.034523e-06 -5.118573e-09 -5.437160e-10
 5.450228e-06 -6.896955e-09 -7.085362e-10
 5.453543e-06 -7.499018e-09 -7.949274e-10
 5.457531e-06 -8.048388e-09 -8.823721e-10
 5.461461e-06 -8.509552e-09 -9.654370e-10
 5.465999e-06 -8.847948e-09 -1.042183e-09
 5.470374e-06 -9.012757e-09 -1.101941e-09
 5.475198e-06 -8.960718e-09 -1.136929e-09
 5.479635e-06 -8.634834e-09 -1.127124e-09
 5.484222e-06 -8.007570e-09 -1.057287e-09
 5.488039e-06 -7.063429e-09 -9.090340e-10
 5.491578e-06 -5.858054e-09 -6.839605e-10
 5.493932e-06 -4.488279e-09 -4.056587e-10
 5.495684e-06 -3.079451e-09 -1.096503e-10
 5.496223e-06 -1.829405e-09  6.253836e-11
 5.496621e-06 -8.293975e-10  8.143187e-11
 5.496467e-06 -1.046285e-12  3.262710e-12
 5.496607e-06  8.255398e-10 -7.638668e-11
 5.496203e-06  1.821030e-09 -6.136409e-11
 5.495670e-06  3.065416e-09  1.053967e-10
 5.493940e-06  4.467347e-09  3.941448e-10
 5.491618e-06  5.833520e-09  6.715404e-10
 5.488112e-06  7.036903e-09  8.965015e-10
 5.484322e-06  7.983233e-09  1.046544e-09
 5.479757e-06  8.616491e-09  1.119472e-09
 5.475334e-06  8.950358e-09  1.132451e-09
 5.470516e-06  9.010375e-09  1.099939e-09
 5.466143e-06  8.852330e-09  1.041673e-09
 5.461602e-06  8.519424e-09  9.658703e-10
 5.457667e-06  8.062620e-09  8.834448e-10
 5.453671e-06  7.516512e-09  7.963788e-10
 5.450348e-06  6.916791e-09  7.102089e-10
 5.446998e-06  6.287985e-09  6.259268e-10
 5.444330e-06  5.653305e-09  5.464561e-10
 5.441624e-06  5.028758e-09  4.722388e-10
 5.439577e-06  4.428017e-09  4.044595e-10
 5.437457e-06  3.860177e-09  3.431507e-10
 5.435956e-06  3.331878e-09  2.884909e-10
 5.434338e-06  2.846734e-09  2.401819e-10
 5.433294e-06  2.406271e-09  1.978773e-10
 5.432089e-06  2.010085e-09  1.611221e-10
 5.431415e-06  1.656288e-09  1.294043e-10
 5.430540e-06  1.341755e-09  1.022003e-10
 5.430159e-06  1.062395e-09  7.893343e-11
 5.429545e-06  8.133558e-10  5.902636e-11
 5.429398e-06  5.892081e-10  4.184549e-11
 5.428994e-06  3.840942e-10  2.675433e-11
 5.429039e-06  1.918579e-10  1.306483e-11
 5.428815e-06  6.153494e-12  9.568041e-14
 5.429035e-06 -1.794568e-10 -1.286906e-11
 5.428985e-06 -3.714124e-10 -2.652174e-11
 5.429385e-06 -5.760658e-10 -4.156781e-11
 5.429527e-06 -7.995834e-10 -5.867218e-11
 5.430136e-06 -1.047839e-09 -7.849594e-11
 5.430511e-06 -1.326283e-09 -1.016502e-10
 5.431380e-06 -1.639797e-09 -1.287370e-10
 5.432048e-06 -1.992507e-09 -1.603122e-10
 5.433246e-06 -2.387581e-09 -1.969243e-10
 5.434282e-06 -2.826962e-09 -2.390677e-10
 5.435892e-06 -3.311116e-09 -2.872223e-10
 5.437384e-06 -3.838595e-09 -3.417241e-10
 5.439495e-06 -4.405862e-09 -4.028956e-10
 5.441533e-06 -5.006386e-09 -4.705597e-10
 5.444229e-06 -5.631162e-09 -5.447063e-10
 5.446887e-06 -6.266657e-09 -6.241731e-10
 5.797340e-06 -8.033324e-09 -8.104816e-10
 5.800767e-06 -8.731451e-09 -9.148661e-10
 5.804904e-06 -9.361309e-09 -1.019490e-09
 5.809009e-06 -9.886985e-09 -1.123186e-09
 5.813760e-06 -1.025638e-08 -1.216076e-09
 5.818366e-06 -1.042200e-08 -1.291431e-09
 5.823446e-06 -1.032057e-08 -1.329167e-09
 5.828132e-06 -9.912260e-09 -1.312880e-09
 5.832951e-06 -9.160764e-09 -1.218817e-09
 5.836958e-06 -8.090702e-09 -1.037650e-09
 5.840639e-06 -6.761311e-09 -7.792878e-10
 5.843102e-06 -5.298267e-09 -4.816851e-10
 5.844947e-06 -3.788073e-09 -1.775465e-10
 5.845580e-06 -2.380432e-09  8.013336e-12
 5.846040e-06 -1.130891e-09  5.124745e-11
 5.845916e-06 -3.748321e-12  2.396500e-12
 5.846029e-06  1.122510e-09 -4.762941e-11
 5.845564e-06  2.369713e-09 -7.623930e-12
 5.844937e-06  3.774518e-09  1.733502e-10
 5.843113e-06  5.280953e-09  4.708378e-10
 5.840681e-06  6.741299e-09  7.672622e-10
 5.837031e-06  8.068737e-09  1.024887e-09
 5.833053e-06  9.139740e-09  1.207044e-09
 5.828258e-06  9.895694e-09  1.303672e-09
 5.823587e-06  1.031116e-08  1.323252e-09
 5.818515e-06  1.042075e-08  1.288562e-09
 5.813910e-06  1.026277e-08  1.215408e-09
 5.809156e-06  9.899626e-09  1.123792e-09
 5.805045e-06  9.378871e-09  1.020846e-09
 5.800900e-06  8.752752e-09  9.167100e-10
 5.797463e-06  8.057260e-09  8.125551e-10
 5.794025e-06  7.327401e-09  7.131629e-10
 5.791298e-06  6.587469e-09  6.190406e-10
 5.788553e-06  5.859142e-09  5.324636e-10
 5.786487e-06  5.157404e-09  4.535420e-10
 5.784361e-06  4.494114e-09  3.829066e-10
 5.782866e-06  3.876751e-09  3.201997e-10
 5.781262e-06  3.309944e-09  2.651395e-10
 5.780239e-06  2.795533e-09  2.171695e-10
 5.779057e-06  2.333205e-09  1.757436e-10
 5.778409e-06  1.920800e-09  1.402336e-10
 5.777560e-06  1.554675e-09  1.100169e-10
 5.777204e-06  1.230007e-09  8.441343e-11
 5.776611e-06  9.410575e-10  6.273832e-11
 5.776481e-06  6.814012e-10  4.424476e-11
 5.776090e-06  4.441186e-10  2.818149e-11
 5.776143e-06  2.219572e-10  1.374537e-11
 5.775922e-06  7.460515e-12  1.429690e-13
 5.776138e-06 -2.069248e-10 -1.345356e-11
 5.776081e-06 -4.287548e-10 -2.784716e-11
 5.776468e-06 -6.654939e-10 -4.385729e-11
 5.776593e-06 -9.244074e-10 -6.226266e-11
 5.777181e-06 -1.212434e-09 -8.384065e-11
 5.777532e-06 -1.536023e-09 -1.093140e-10
 5.778375e-06 -1.900948e-09 -1.393938e-10
 5.779017e-06 -2.312073e-09 -1.747371e-10
 5.780190e-06 -2.773092e-09 -2.159946e-10
 5.781206e-06 -3.286228e-09 -2.637719e-10
 5.782802e-06 -3.851869e-09 -3.186483e-10
 5.784288e-06 -4.468257e-09 -3.811590e-10
 5.786404e-06 -5.130871e-09 -4.516293e-10
 5.788460e-06 -5.832329e-09 -5.303960e-10
 5.791195e-06 -6.560914e-09 -6.168907e-10
 5.793912e-06 -7.301747e-09 -7.109801e-10
 6.089147e-06 -8.975523e-09 -9.305464e-10
 6.092661e-06 -9.750410e-09 -1.055613e-09
 6.096914e-06 -1.044597e-08 -1.185348e-09
 6.101179e-06 -1.101120e-08 -1.310731e-09
 6.106118e-06 -1.139672e-08 -1.426149e-09
 6.110950e-06 -1.153682e-08 -1.511810e-09
 6.116262e-06 -1.138368e-08 -1.551467e-09
 6.121182e-06 -1.088707e-08 -1.517918e-09
 6.126202e-06 -1.004741e-08 -1.395085e-09
 6.130373e-06 -8.890827e-09 -1.180046e-09
 6.134178e-06 -7.510892e-09 -8.986112e-10
 6.136746e-06 -5.993655e-09 -5.887705e-10
 6.138703e-06 -4.425147e-09 -2.772488e-10
 6.139447e-06 -2.884752e-09 -7.597741e-11
 6.140000e-06 -1.419032e-09  1.091609e-12
 6.139909e-06 -5.795753e-12  1.420069e-12
 6.139993e-06  1.407268e-09  8.376009e-13
 6.139436e-06  2.872554e-09  7.539338e-11
 6.138699e-06  4.412395e-09  2.728308e-10
 6.136761e-06  5.979638e-09  5.784364e-10
 6.134222e-06  7.495912e-09  8.873015e-10
 6.130446e-06  8.874695e-09  1.167690e-09
 6.126304e-06  1.003184e-08  1.383069e-09
 6.121309e-06  1.087463e-08  1.507775e-09
 6.116406e-06  1.137698e-08  1.544257e-09
 6.111104e-06  1.153754e-08  1.507876e-09
 6.106274e-06  1.140514e-08  1.424987e-09
 6.101332e-06  1.102646e-08  1.311480e-09
 6.097060e-06  1.046661e-08  1.187114e-09
 6.092798e-06  9.775113e-09  1.057941e-09
 6.089274e-06  9.003112e-09  9.331757e-10
 6.085785e-06  8.186342e-09  8.133526e-10
 6.083030e-06  7.357566e-09  7.023198e-10
 6.080284e-06  6.539704e-09  6.002277e-10
 6.078231e-06  5.751823e-09  5.084501e-10
 6.076135e-06  5.006739e-09  4.265813e-10
 6.074678e-06  4.313625e-09  3.544437e-10
 6.073121e-06  3.677780e-09  2.914184e-10
 6.072147e-06  3.101556e-09  2.368722e-10
 6.071018e-06  2.584657e-09  1.901085e-10
 6.070420e-06  2.124636e-09  1.503815e-10
 6.069617e-06  1.717286e-09  1.169357e-10
 6.069302e-06  1.357021e-09  8.894921e-11
 6.068744e-06  1.037213e-09  6.558506e-11
 6.068642e-06  7.504874e-10  4.594323e-11
 6.068271e-06  4.889572e-10  2.912514e-11
 6.068335e-06  2.444170e-10  1.418986e-11
 6.068119e-06  8.477070e-12  2.148698e-13
 6.068331e-06 -2.273360e-10 -1.375242e-11
 6.068263e-06 -4.714982e-10 -2.863855e-11
 6.068629e-06 -7.324089e-10 -4.539314e-11
 6.068727e-06 -1.018289e-09 -6.493246e-11
 6.069280e-06 -1.337045e-09 -8.818234e-11
 6.069590e-06 -1.696082e-09 -1.160180e-10
 6.070386e-06 -2.102064e-09 -1.493028e-10
 6.070978e-06 -2.560624e-09 -1.888352e-10
 6.072100e-06 -3.076027e-09 -2.353977e-10
 6.073066e-06 -3.650791e-09 -2.897169e-10
 6.074615e-06 -4.285294e-09 -3.525161e-10
 6.076062e-06 -4.977283e-09 -4.244198e-10
 6.078148e-06 -5.721563e-09 -5.060736e-10
 6.080190e-06 -6.509095e-09 -5.976662e-10
 6.082926e-06 -7.327180e-09 -6.996292e-10
 6.085669e-06 -8.156922e-09 -8.106313e-10
 6.332871e-06 -9.639073e-09 -1.075582e-09
 6.336446e-06 -1.046660e-08 -1.230146e-09
 6.340807e-06 -1.119508e-08 -1.387033e-09
 6.345216e-06 -1.177567e-08 -1.541454e-09
 6.350347e-06 -1.214389e-08 -1.674154e-09
 6.355390e-06 -1.224800e-08 -1.769719e-09
 6.360932e-06 -1.203037e-08 -1.799139e-09
 6.366060e-06 -1.147420e-08 -1.742402e-09
 6.371261e-06 -1.057983e-08 -1.587616e-09
 6.375571e-06 -9.409059e-09 -1.348389e-09
 6.379495e-06 -8.022694e-09 -1.052870e-09
 6.382185e-06 -6.509107e-09 -7.338530e-10
 6.384278e-06 -4.907487e-09 -4.128992e-10
 6.385165e-06 -3.284475e-09 -1.888012e-10
 6.385830e-06 -1.646915e-09 -6.565565e-11
 6.385786e-06 -6.876673e-12  4.336184e-13
 6.385825e-06  1.633495e-09  6.584526e-11
 6.385160e-06  3.271924e-09  1.870497e-10
 6.384280e-06  4.896074e-09  4.080288e-10
 6.382207e-06  6.498557e-09  7.237123e-10
 6.379543e-06  8.012627e-09  1.042236e-09
 6.375646e-06  9.399157e-09  1.336836e-09
 6.371364e-06  1.057077e-08  1.576041e-09
 6.366188e-06  1.146757e-08  1.732089e-09
 6.361078e-06  1.202813e-08  1.791193e-09
 6.355547e-06  1.225185e-08  1.764813e-09
 6.350508e-06  1.215470e-08  1.672302e-09
 6.345374e-06  1.179321e-08  1.542048e-09
 6.340958e-06  1.121832e-08  1.389202e-09
 6.336586e-06  1.049410e-08  1.233091e-09
 6.333000e-06  9.669585e-09  1.078864e-09
 6.329479e-06  8.792687e-09  9.349367e-10
 6.326726e-06  7.897441e-09  8.014935e-10
 6.324002e-06  7.013038e-09  6.811126e-10
 6.321993e-06  6.159659e-09  5.730505e-10
 6.319954e-06  5.352910e-09  4.774553e-10
 6.318567e-06  4.603076e-09  3.935668e-10
 6.317084e-06  3.916538e-09  3.207634e-10
 6.316188e-06  3.295987e-09  2.582197e-10
 6.315134e-06  2.741085e-09  2.051081e-10
 6.314607e-06  2.248966e-09  1.605092e-10
 6.313868e-06  1.814757e-09  1.234703e-10
 6.313609e-06  1.432061e-09  9.295059e-11
 6.313097e-06  1.093392e-09  6.789157e-11
 6.313030e-06  7.905353e-10  4.718593e-11
 6.312685e-06  5.148303e-10  2.974891e-11
 6.312765e-06  2.573697e-10  1.447579e-11
 6.312554e-06  9.124885e-12  2.996318e-13
 6.312761e-06 -2.389807e-10 -1.386661e-11
 6.312677e-06 -4.960262e-10 -2.908286e-11
 6.313019e-06 -7.710497e-10 -4.644404e-11
 6.313081e-06 -1.072974e-09 -6.702916e-11
 6.313588e-06 -1.410483e-09 -9.195173e-11
 6.313843e-06 -1.791821e-09 -1.222942e-10
 6.314575e-06 -2.224517e-09 -1.591427e-10
 6.315096e-06 -2.715016e-09 -2.035121e-10
 6.316142e-06 -3.268254e-09 -2.563845e-10
 6.317031e-06 -3.887174e-09 -3.186545e-10
 6.318504e-06 -4.572207e-09 -3.911868e-10
 6.319883e-06 -5.320762e-09 -4.747833e-10
 6.321911e-06 -6.126583e-09 -5.701189e-10
 6.323909e-06 -6.979505e-09 -6.779324e-10
 6.326621e-06 -7.864084e-09 -7.981594e-10
 6.329362e-06 -8.760274e-09 -9.315259e-10
 6.533806e-06 -9.933272e-09 -1.255925e-09
 6.537441e-06 -1.077162e-08 -1.442289e-09
 6.541901e-06 -1.149806e-08 -1.633935e-09
 6.546465e-06 -1.205275e-08 -1.811858e-09
 6.551780e-06 -1.238393e-08 -1.961716e-09
 6.557042e-06 -1.243238e-08 -2.053666e-09
 6.562792e-06 -1.217058e-08 -2.066333e-09
 6.568113e-06 -1.158094e-08 -1.981619e-09
 6.573464e-06 -1.069760e-08 -1.804283e-09
 6.577907e-06 -9.555635e-09 -1.550623e-09
 6.581961e-06 -8.224792e-09 -1.245144e-09
 6.584800e-06 -6.748083e-09 -9.180159e-10
 6.587059e-06 -5.170365e-09 -5.806812e-10
 6.588115e-06 -3.506294e-09 -3.226626e-10
 6.588909e-06 -1.778798e-09 -1.410940e-10
 6.588915e-06 -6.889826e-12 -4.827042e-13
 6.588908e-06  1.765588e-09  1.396035e-10
 6.588116e-06  3.494735e-09  3.196737e-10
 6.587068e-06  5.161087e-09  5.751552e-10
 6.584828e-06  6.740992e-09  9.078279e-10
 6.582015e-06  8.219558e-09  1.234959e-09
 6.577986e-06  9.551656e-09  1.539889e-09
 6.573568e-06  1.069515e-08  1.793583e-09
 6.568241e-06  1.158076e-08  1.971831e-09
 6.562938e-06  1.217386e-08  2.058382e-09
 6.557201e-06  1.244042e-08  2.048307e-09
 6.551944e-06  1.239766e-08  1.959257e-09
 6.546627e-06  1.207245e-08  1.812132e-09
 6.542055e-06  1.152317e-08  1.636259e-09
 6.537585e-06  1.080107e-08  1.445862e-09
 6.533937e-06  9.965742e-09  1.260000e-09
 6.530402e-06  9.063434e-09  1.083657e-09
 6.527662e-06  8.136614e-09  9.238018e-10
 6.524982e-06  7.215890e-09  7.793595e-10
 6.523039e-06  6.326260e-09  6.510118e-10
 6.521085e-06  5.485262e-09  5.377676e-10
 6.519793e-06  4.705200e-09  4.390704e-10
 6.518412e-06  3.993197e-09  3.540371e-10
 6.517616e-06  3.352171e-09  2.817227e-10
 6.516659e-06  2.781467e-09  2.210683e-10
 6.516220e-06  2.277595e-09  1.708744e-10
 6.515559e-06  1.834898e-09  1.298578e-10
 6.515365e-06  1.446175e-09  9.664426e-11
 6.514907e-06  1.103212e-09  6.986644e-11
 6.514882e-06  7.972041e-10  4.814738e-11
 6.514566e-06  5.190431e-10  3.017644e-11
 6.514663e-06  2.595080e-10  1.466363e-11
 6.514458e-06  9.356169e-12  3.879431e-13
 6.514660e-06 -2.406497e-10 -1.387533e-11
 6.514559e-06 -4.997486e-10 -2.932307e-11
 6.514871e-06 -7.771904e-10 -4.720422e-11
 6.514893e-06 -1.082209e-09 -6.878155e-11
 6.515347e-06 -1.423935e-09 -9.539506e-11
 6.515536e-06 -1.811205e-09 -1.283967e-10
 6.516190e-06 -2.252276e-09 -1.691843e-10
 6.516623e-06 -2.754401e-09 -2.191062e-10
 6.517573e-06 -3.323305e-09 -2.794722e-10
 6.518361e-06 -3.962558e-09 -3.514606e-10
 6.519733e-06 -4.672910e-09 -4.361588e-10
 6.521015e-06 -5.451558e-09 -5.345061e-10
 6.522958e-06 -6.291496e-09 -6.474150e-10
 6.524890e-06 -7.180568e-09 -7.754668e-10
 6.527557e-06 -8.101372e-09 -9.196850e-10
 6.530284e-06 -9.029088e-09 -1.079461e-09
 6.695917e-06 -9.756363e-09 -1.474191e-09
 6.699616e-06 -1.056048e-08 -1.696951e-09
 6.704196e-06 -1.123663e-08 -1.915616e-09
 6.708914e-06 -1.173666e-08 -2.116563e-09
 6.714428e-06 -1.200515e-08 -2.268824e-09