# vtk DataFile Version 2.0
Generated by ludwig extract.c
ASCII
DATASET STRUCTURED_POINTS
DIMENSIONS 64 32 32
ORIGIN 0 0 0
SPACING 1 1 1
POINT_DATA 65536
VECTORS velocity_field float
 1.113812e-06 -2.473068e-10 -2.473068e-10
 1.114238e-06 -2.735495e-10 -2.735495e-10
 1.115771e-06 -2.981158e-10 -2.981157e-10
 1.116345e-06 -3.203832e-10 -3.203832e-10
 1.118011e-06 -3.383614e-10 -3.383614e-10
 1.118690e-06 -3.503788e-10 -3.503788e-10
 1.120423e-06 -3.541642e-10 -3.541642e-10
 1.121116e-06 -3.467777e-10 -3.467777e-10
 1.122793e-06 -3.256946e-10 -3.256945e-10
 1.123341e-06 -2.864381e-10 -2.864381e-10
 1.124763e-06 -2.257319e-10 -2.257319e-10
 1.124919e-06 -1.372908e-10 -1.372907e-10
 1.125790e-06 -1.988348e-11 -1.988346e-11
 1.125344e-06  4.488268e-11  4.488266e-11
 1.125812e-06  5.350605e-11  5.350605e-11
 1.125260e-06  2.982237e-11  2.982237e-11
 1.125806e-06  3.135960e-12  3.135967e-12
 1.125349e-06  3.923462e-12  3.923466e-12
 1.125838e-06  5.114389e-11  5.114391e-11
 1.125062e-06  1.523464e-10  1.523464e-10
 1.125002e-06  2.525602e-10  2.525602e-10
 1.123648e-06  3.225415e-10  3.225415e-10
 1.123138e-06  3.674975e-10  3.674975e-10
 1.121486e-06  3.934593e-10  3.934593e-10
 1.120799e-06  4.036460e-10  4.036460e-10
 1.119067e-06  4.022875e-10  4.022876e-10
 1.118372e-06  3.912501e-10  3.912500e-10
 1.116694e-06  3.739934e-10  3.739934e-10
 1.116093e-06  3.514773e-10  3.514773e-10
 1.114541e-06  3.264817e-10  3.264816e-10
 1.114085e-06  2.992391e-10  2.992391e-10
 1.112690e-06  2.719302e-10  2.719302e-10
 1.112396e-06  2.442994e-10  2.442994e-10
 1.111165e-06  2.180187e-10  2.180187e-10
 1.111030e-06  1.925641e-10  1.925640e-10
 1.109953e-06  1.691667e-10  1.691667e-10
 1.109963e-06  1.472029e-10  1.472029e-10
 1.109022e-06  1.275106e-10  1.275106e-10
 1.109157e-06  1.094906e-10  1.094906e-10
 1.108332e-06  9.361840e-11  9.361843e-11
 1.108571e-06  7.940620e-11  7.940624e-11
 1.107842e-06  6.699233e-11  6.699227e-11
 1.108168e-06  5.605760e-11  5.605759e-11
 1.107518e-06  4.642469e-11  4.642469e-11
 1.107916e-06  3.797806e-11  3.797807e-11
 1.107332e-06  3.024765e-11  3.024767e-11
 1.107792e-06  2.333840e-11  2.333839e-11
 1.107267e-06  1.651581e-11  1.651581e-11
 1.107785e-06  1.010769e-11  1.010770e-11
 1.107315e-06  3.149147e-12  3.149175e-12
 1.107892e-06 -3.817175e-12 -3.817151e-12
 1.107483e-06 -1.194479e-11 -1.194479e-11
 1.108125e-06 -2.049280e-11 -2.049282e-11
 1.107785e-06 -3.075203e-11 -3.075207e-11
 1.108504e-06 -4.180373e-11 -4.180376e-11
 1.108248e-06 -5.501401e-11 -5.501405e-11
 1.109061e-06 -6.930904e-11 -6.930908e-11
 1.108905e-06 -8.605507e-11 -8.605508e-11
 1.109831e-06 -1.040429e-10 -1.040429e-10
 1.109797e-06 -1.245466e-10 -1.245466e-10
 1.110856e-06 -1.462339e-10 -1.462339e-10
 1.110964e-06 -1.701710e-10 -1.701710e-10
 1.112174e-06 -1.949055e-10 -1.949056e-10
 1.112438e-06 -2.211467e-10 -2.211467e-10
 2.315774e-06 -8.621335e-10 -2.591935e-10
 2.317081e-06 -9.436172e-10 -2.872432e-10
 2.319565e-06 -1.020050e-09 -3.133075e-10
 2.321154e-06 -1.088511e-09 -3.379852e-10
 2.323887e-06 -1.142852e-09 -3.577957e-10
 2.325670e-06 -1.179061e-09 -3.726354e-10
 2.328522e-06 -1.188064e-09 -3.779933e-10
 2.330322e-06 -1.164883e-09 -3.728523e-10
 2.333060e-06 -1.097207e-09 -3.513462e-10
 2.334578e-06 -9.796346e-10 -3.107786e-10
 2.336830e-06 -7.973908e-10 -2.426113e-10
 2.337621e-06 -5.546102e-10 -1.413067e-10
 2.338846e-06 -2.090954e-10  5.110203e-12
 2.338499e-06 -2.403000e-11  7.678458e-11
 2.338955e-06  1.961879e-11  7.620838e-11
 2.338388e-06 -2.349428e-11  3.275539e-11
 2.338952e-06 -7.163207e-11 -1.408966e-11
 2.338520e-06 -4.786773e-11 -2.606510e-11
 2.338951e-06  1.013635e-10  2.285955e-11
 2.337902e-06  3.991055e-10  1.450938e-10
 2.337292e-06  6.820796e-10  2.643817e-10
 2.335162e-06  8.842891e-10  3.439293e-10
 2.333720e-06  1.022102e-09  3.921576e-10
 2.331029e-06  1.104716e-09  4.190638e-10
 2.329243e-06  1.140950e-09  4.276983e-10
 2.326390e-06  1.141311e-09  4.247394e-10
 2.324583e-06  1.112897e-09  4.110793e-10
 2.321823e-06  1.063750e-09  3.918233e-10
 2.320189e-06  9.992766e-10  3.669045e-10
 2.317664e-06  9.250976e-10  3.402348e-10
 2.316305e-06  8.450310e-10  3.111409e-10
 2.314080e-06  7.626612e-10  2.825999e-10
 2.313032e-06  6.804844e-10  2.536189e-10
 2.311121e-06  6.005633e-10  2.264494e-10
 2.310380e-06  5.243720e-10  1.999921e-10
 2.308767e-06  4.529107e-10  1.759130e-10
 2.308307e-06  3.868909e-10  1.531568e-10
 2.306958e-06  3.266011e-10  1.328827e-10
 2.306741e-06  2.721972e-10  1.141882e-10
 2.305617e-06  2.235083e-10  9.776853e-11
 2.305605e-06  1.802957e-10  8.295085e-11
 2.304668e-06  1.421029e-10  6.998987e-11
 2.304824e-06  1.084167e-10  5.849449e-11
 2.304040e-06  7.861105e-11  4.829639e-11
 2.304336e-06  5.198991e-11  3.931959e-11
 2.303679e-06  2.784421e-11  3.099820e-11
 2.304096e-06  5.367065e-12  2.358520e-11
 2.303553e-06 -1.617599e-11  1.614727e-11
 2.304080e-06 -3.765153e-11  9.262483e-12
 2.303647e-06 -5.977892e-11  1.670781e-12
 2.304288e-06 -8.344265e-11 -5.744162e-12
 2.303972e-06 -1.093123e-10 -1.451689e-11
 2.304738e-06 -1.382459e-10 -2.348904e-11
 2.304558e-06 -1.708204e-10 -3.440522e-11
 2.305474e-06 -2.078055e-10 -4.586937e-11
 2.305455e-06 -2.496245e-10 -5.975930e-11
 2.306553e-06 -2.968681e-10 -7.447699e-11
 2.306733e-06 -3.497298e-10 -9.194600e-11
 2.308049e-06 -4.084988e-10 -1.103995e-10
 2.308466e-06 -4.730435e-10 -1.317151e-10
 2.310040e-06 -5.431637e-10 -1.539700e-10
 2.310732e-06 -6.182789e-10 -1.788981e-10
 2.312599e-06 -6.974234e-10 -2.043968e-10
 2.313594e-06 -7.794164e-10 -2.319496e-10
 3.240802e-06 -1.858338e-09 -3.489422e-10
 3.242719e-06 -2.030021e-09 -3.862243e-10
 3.245861e-06 -2.190455e-09 -4.220708e-10
 3.248151e-06 -2.329834e-09 -4.553054e-10
 3.251619e-06 -2.439536e-09 -4.836480e-10
 3.254161e-06 -2.505028e-09 -5.040867e-10
 3.257779e-06 -2.515087e-09 -5.138113e-10
 3.260335e-06 -2.449989e-09 -5.073183e-10
 3.263791e-06 -2.296597e-09 -4.806165e-10
 3.265962e-06 -2.031634e-09 -4.236736e-10
 3.268764e-06 -1.650391e-09 -3.299653e-10
 3.269961e-06 -1.141178e-09 -1.864468e-10
 3.271448e-06 -5.078271e-10  8.959926e-12
 3.271238e-06 -1.063038e-10  1.088463e-10
 3.271741e-06  2.843924e-11  1.023070e-10
 3.271183e-06  1.606875e-11  3.598753e-11
 3.271748e-06 -8.509943e-12 -3.690444e-11
 3.271288e-06  9.415991e-11 -5.970547e-11
 3.271616e-06  4.342836e-10  8.808149e-12
 3.270341e-06  1.008248e-09  1.741485e-10
 3.269366e-06  1.561059e-09  3.370051e-10
 3.266728e-06  1.982711e-09  4.480484e-10
 3.264661e-06  2.282348e-09  5.160200e-10
 3.261268e-06  2.467336e-09  5.515665e-10
 3.258734e-06  2.556453e-09  5.628625e-10
 3.255115e-06  2.566047e-09  5.571261e-10
 3.252543e-06  2.514360e-09  5.383075e-10
 3.249038e-06  2.414963e-09  5.112301e-10
 3.246692e-06  2.281682e-09  4.777961e-10
 3.243495e-06  2.124786e-09  4.415751e-10
 3.241510e-06  1.953860e-09  4.031029e-10
 3.238710e-06  1.776028e-09  3.650518e-10
 3.237138e-06  1.597359e-09  3.271302e-10
 3.234755e-06  1.422361e-09  2.913439e-10
 3.233593e-06  1.254454e-09  2.569785e-10
 3.231608e-06  1.096121e-09  2.255029e-10
 3.230821e-06  9.489013e-10  1.960617e-10
 3.229189e-06  8.137816e-10  1.696545e-10
 3.228729e-06  6.910156e-10  1.454688e-10
 3.227397e-06  5.805219e-10  1.240726e-10
 3.227211e-06  4.817074e-10  1.048125e-10
 3.226128e-06  3.937505e-10  8.784614e-11
 3.226168e-06  3.155164e-10  7.274768e-11
 3.225290e-06  2.456950e-10  5.928731e-11
 3.225516e-06  1.828424e-10  4.730926e-11
 3.224809e-06  1.253543e-10  3.622234e-11
 3.225196e-06  7.163580e-11  2.615518e-11
 3.224641e-06  1.992325e-11  1.618572e-11
 3.225175e-06 -3.141848e-11  6.726529e-12
 3.224767e-06 -8.421204e-11 -3.435131e-12
 3.225452e-06 -1.400474e-10 -1.361547e-11
 3.225200e-06 -2.007147e-10 -2.526678e-11
 3.226053e-06 -2.676700e-10 -3.745712e-11
 3.225982e-06 -3.425595e-10 -5.181792e-11
 3.227035e-06 -4.265861e-10 -6.720073e-11
 3.227182e-06 -5.210926e-10 -8.534308e-11
 3.228477e-06 -6.268553e-10 -1.049126e-10
 3.228889e-06 -7.446805e-10 -1.276565e-10
 3.230477e-06 -8.746962e-10 -1.520902e-10
 3.231206e-06 -1.016863e-09 -1.798550e-10
 3.233139e-06 -1.170380e-09 -2.093466e-10
 3.234237e-06 -1.333908e-09 -2.419409e-10
 3.236560e-06 -1.505349e-09 -2.759308e-10
 3.238063e-06 -1.681435e-09 -3.122030e-10
 3.977020e-06 -3.150012e-09 -4.530430e-10
 3.979367e-06 -3.429775e-09 -5.021511e-10
 3.982976e-06 -3.687420e-09 -5.489417e-10
 3.985763e-06 -3.910527e-09 -5.934952e-10
 3.989757e-06 -4.079826e-09 -6.305954e-10
 3.992840e-06 -4.178617e-09 -6.591888e-10
 3.997009e-06 -4.180228e-09 -6.718333e-10
 4.000105e-06 -4.064171e-09 -6.655271e-10
 4.004076e-06 -3.797136e-09 -6.283657e-10
 4.006706e-06 -3.363109e-09 -5.524722e-10
 4.009887e-06 -2.742603e-09 -4.232515e-10
 4.011369e-06 -1.964909e-09 -2.382385e-10
 4.013050e-06 -1.063126e-09  1.588625e-12
 4.012954e-06 -4.362223e-10  1.279118e-10
 4.013511e-06 -1.475791e-10  1.217399e-10
 4.012973e-06 -5.967220e-11  3.732108e-11
 4.013530e-06  1.489770e-11 -5.481894e-11
 4.013035e-06  2.599230e-10 -8.308195e-11
 4.013271e-06  8.186018e-10  6.826415e-12
 4.011824e-06  1.668476e-09  2.149450e-10
 4.010586e-06  2.484407e-09  4.162258e-10
 4.007596e-06  3.153408e-09  5.645723e-10
 4.005092e-06  3.644108e-09  6.573253e-10
 4.001199e-06  3.960497e-09  7.064804e-10
 3.998130e-06  4.119465e-09  7.207229e-10
 3.993961e-06  4.150917e-09  7.130834e-10
 3.990844e-06  4.078742e-09  6.875129e-10
 3.986806e-06  3.928459e-09  6.519403e-10
 3.983953e-06  3.719333e-09  6.077688e-10
 3.980279e-06  3.470245e-09  5.605211e-10
 3.977852e-06  3.195442e-09  5.103488e-10
 3.974647e-06  2.907760e-09  4.610682e-10
 3.972708e-06  2.616824e-09  4.121093e-10
 3.969996e-06  2.330567e-09  3.660933e-10
 3.968542e-06  2.054808e-09  3.220982e-10
 3.966299e-06  1.793804e-09  2.818909e-10
 3.965289e-06  1.550449e-09  2.444476e-10
 3.963462e-06  1.326372e-09  2.108909e-10
 3.962836e-06  1.122325e-09  1.802661e-10
 3.961363e-06  9.381249e-10  1.531679e-10
 3.961060e-06  7.730094e-10  1.288208e-10
 3.959880e-06  6.255797e-10  1.073499e-10
 3.959842e-06  4.940588e-10  8.823699e-11
 3.958902e-06  3.763025e-10  7.118133e-11
 3.959082e-06  2.699107e-10  5.596508e-11
 3.958342e-06  1.723173e-10  4.188482e-11
 3.958709e-06  8.077247e-11  2.903778e-11
 3.958146e-06 -7.483993e-12  1.634885e-11
 3.958685e-06 -9.535663e-11  4.229027e-12
 3.958292e-06 -1.856300e-10 -8.721499e-12
 3.959007e-06 -2.812013e-10 -2.178861e-11
 3.958797e-06 -3.847241e-10 -3.663615e-11
 3.959708e-06 -4.989187e-10 -5.227031e-11
 3.959710e-06 -6.261274e-10 -7.055140e-11
 3.960854e-06 -7.686761e-10 -9.024335e-11
 3.961112e-06 -9.283464e-10 -1.133282e-10
 3.962541e-06 -1.106752e-09 -1.383637e-10
 3.963111e-06 -1.304754e-09 -1.673590e-10
 3.964884e-06 -1.522790e-09 -1.986709e-10
 3.965829e-06 -1.760348e-09 -2.342257e-10
 3.968009e-06 -2.016093e-09 -2.721536e-10
 3.969388e-06 -2.287586e-09 -3.141812e-10
 3.972030e-06 -2.570875e-09 -3.581072e-10
 3.973887e-06 -2.860913e-09 -4.053137e-10
 4.577903e-06 -4.451601e-09 -5.554771e-10
 4.580559e-06 -4.840567e-09 -6.162995e-10
 4.584505e-06 -5.197849e-09 -6.757873e-10
 4.587658e-06 -5.501041e-09 -7.311735e-10
 4.592040e-06 -5.729331e-09 -7.795698e-10
 4.595531e-06 -5.850878e-09 -8.152591e-10
 4.600115e-06 -5.838975e-09 -8.341221e-10
 4.603623e-06 -5.651969e-09 -8.248830e-10
 4.607981e-06 -5.262847e-09 -7.783697e-10
 4.610956e-06 -4.637639e-09 -6.768267e-10
 4.614415e-06 -3.787967e-09 -5.132580e-10
 4.616105e-06 -2.758620e-09 -2.868081e-10
 4.617929e-06 -1.639503e-09 -1.379113e-11
 4.617916e-06 -7.899370e-10  1.360781e-10
 4.618518e-06 -3.074884e-10  1.315717e-10
 4.617995e-06 -4.387922e-11  3.669507e-11
 4.618552e-06  2.043632e-10 -6.717183e-11
 4.618026e-06  6.442516e-10 -9.616430e-11
 4.618195e-06  1.428751e-09  1.379660e-11
 4.616617e-06  2.515304e-09  2.572602e-10
 4.615185e-06  3.574164e-09  4.951955e-10
 4.611935e-06  4.471592e-09  6.762947e-10
 4.609106e-06  5.162480e-09  7.982171e-10
 4.604837e-06  5.618777e-09  8.621607e-10
 4.601361e-06  5.862115e-09  8.818755e-10
 4.596777e-06  5.920793e-09  8.706281e-10
 4.593248e-06  5.834202e-09  8.385118e-10
 4.588815e-06  5.632578e-09  7.927540e-10
 4.585588e-06  5.347121e-09  7.377373e-10
 4.581567e-06  5.001352e-09  6.782022e-10
 4.578823e-06  4.617688e-09  6.160761e-10
 4.575330e-06  4.212990e-09  5.547144e-10
 4.573136e-06  3.802110e-09  4.944986e-10
 4.570197e-06  3.396019e-09  4.377775e-10
 4.568545e-06  3.003585e-09  3.840713e-10
 4.566129e-06  2.631021e-09  3.349663e-10
 4.564971e-06  2.282732e-09  2.896013e-10
 4.563017e-06  1.961320e-09  2.489587e-10
 4.562286e-06  1.667987e-09  2.121102e-10
 4.560725e-06  1.402691e-09  1.795210e-10
 4.560349e-06  1.164395e-09  1.503772e-10
 4.559109e-06  9.512421e-10  1.246993e-10
 4.559024e-06  7.607478e-10  1.019079e-10
 4.558048e-06  5.899120e-10  8.161974e-11
 4.558201e-06  4.353598e-10  6.352728e-11
 4.557442e-06  2.934226e-10  4.686708e-11
 4.557798e-06  1.602323e-10  3.161344e-11
 4.557230e-06  3.178486e-11  1.665021e-11
 4.557772e-06 -9.599337e-11  2.234150e-12
 4.557389e-06 -2.271794e-10 -1.305327e-11
 4.558120e-06 -3.658034e-10 -2.867338e-11
 4.557934e-06 -5.157690e-10 -4.628155e-11
 4.558879e-06 -6.808081e-10 -6.507252e-11
 4.558924e-06 -8.643755e-10 -8.687247e-11
 4.560124e-06 -1.069591e-09 -1.106450e-10
 4.560451e-06 -1.299091e-09 -1.383197e-10
 4.561964e-06 -1.554943e-09 -1.686707e-10
 4.562634e-06 -1.838422e-09 -2.036361e-10
 4.564528e-06 -2.149920e-09 -2.418222e-10
 4.565613e-06 -2.488564e-09 -2.850023e-10
 4.567959e-06 -2.852315e-09 -3.316107e-10
 4.569528e-06 -3.237186e-09 -3.830230e-10
 4.572388e-06 -3.637840e-09 -4.374981e-10
 4.574493e-06 -4.045858e-09 -4.956409e-10
 5.076887e-06 -5.833301e-09 -6.509836e-10
 5.079763e-06 -6.333862e-09 -7.250328e-10
 5.083962e-06 -6.788622e-09 -7.966795e-10
 5.087391e-06 -7.173973e-09 -8.656506e-10
 5.092077e-06 -7.455004e-09 -9.245931e-10
 5.095888e-06 -7.600143e-09 -9.717204e-10
 5.100808e-06 -7.561635e-09 -9.945571e-10
 5.104645e-06 -7.303353e-09 -9.851619e-10
 5.109317e-06 -6.777950e-09 -9.231950e-10
 5.112561e-06 -5.976620e-09 -7.965682e-10
 5.116236e-06 -4.912912e-09 -5.949515e-10
 5.118080e-06 -3.683476e-09 -3.332772e-10
 5.120009e-06 -2.390590e-09 -3.624277e-11
 5.120069e-06 -1.344199e-09  1.292297e-10
 5.120706e-06 -6.310498e-10  1.319428e-10
 5.120201e-06 -1.377949e-10  3.410943e-11
 5.120754e-06  3.427638e-10 -7.314979e-11
 5.120209e-06  1.020883e-09 -9.565982e-11
 5.120316e-06  2.021441e-09  3.117380e-11
 5.118641e-06  3.300837e-09  3.004098e-10
 5.117061e-06  4.561171e-09  5.705148e-10
 5.113609e-06  5.670841e-09  7.859407e-10
 5.110525e-06  6.542556e-09  9.332517e-10
 5.105954e-06  7.147307e-09  1.016943e-09
 5.102153e-06  7.480124e-09  1.041626e-09
 5.097232e-06  7.579418e-09  1.028241e-09
 5.093379e-06  7.483406e-09  9.867198e-10
 5.088635e-06  7.238414e-09  9.304755e-10
 5.085123e-06  6.879706e-09  8.626382e-10
 5.080842e-06  6.441976e-09  7.906383e-10
 5.077868e-06  5.951641e-09  7.154756e-10
 5.074171e-06  5.432704e-09  6.419576e-10
 5.071801e-06  4.903451e-09  5.700358e-10
 5.068711e-06  4.379163e-09  5.027047e-10
 5.066932e-06  3.871226e-09  4.392912e-10
 5.064409e-06  3.388209e-09  3.815758e-10
 5.063164e-06  2.936034e-09  3.285981e-10
 5.061138e-06  2.518311e-09  2.813210e-10
 5.060350e-06  2.136793e-09  2.387195e-10
 5.058742e-06  1.791504e-09  2.011626e-10
 5.058331e-06  1.481226e-09  1.677557e-10
 5.057064e-06  1.203601e-09  1.384331e-10
 5.056959e-06  9.554530e-10  1.125362e-10
 5.055968e-06  7.329021e-10  8.959833e-11
 5.056111e-06  5.315583e-10  6.923599e-11
 5.055345e-06  3.466482e-10  5.059410e-11
 5.055698e-06  1.730908e-10  3.356461e-11
 5.055128e-06  5.664493e-12  1.692878e-11
 5.055671e-06 -1.610073e-10  8.580705e-13
 5.055290e-06 -3.322332e-10 -1.617319e-11
 5.056028e-06 -5.133396e-10 -3.370751e-11
 5.055851e-06 -7.093830e-10 -5.350413e-11
 5.056809e-06 -9.252866e-10 -7.482875e-11
 5.056873e-06 -1.165479e-09 -9.960367e-11
 5.058098e-06 -1.434051e-09 -1.268557e-10
 5.058457e-06 -1.734314e-09 -1.586096e-10
 5.060013e-06 -2.068941e-09 -1.937018e-10
 5.060738e-06 -2.439440e-09 -2.341855e-10
 5.062699e-06 -2.846216e-09 -2.787140e-10
 5.063867e-06 -3.288032e-09 -3.292430e-10
 5.066314e-06 -3.761818e-09 -3.841063e-10
 5.068004e-06 -4.262497e-09 -4.449850e-10
 5.071008e-06 -4.782117e-09 -5.096643e-10
 5.073280e-06 -5.310619e-09 -5.793986e-10
 5.495581e-06 -7.082274e-09 -7.469175e-10
 5.498621e-06 -7.685922e-09 -8.345010e-10
 5.503008e-06 -8.233736e-09 -9.219513e-10
 5.506660e-06 -8.689538e-09 -1.004687e-09
 5.511590e-06 -9.018705e-09 -1.079795e-09
 5.515673e-06 -9.169641e-09 -1.137006e-09
 5.520873e-06 -9.099491e-09 -1.167845e-09
 5.524996e-06 -8.750682e-09 -1.152078e-09
 5.529930e-06 -8.097456e-09 -1.074138e-09
 5.533397e-06 -7.125224e-09 -9.150390e-10
 5.537241e-06 -5.894647e-09 -6.771765e-10
 5.539201e-06 -4.506618e-09 -3.844253e-10
 5.541220e-06 -3.094297e-09 -7.604258e-11
 5.541348e-06 -1.861821e-09  1.022352e-10
 5.542036e-06 -9.025803e-10  1.185307e-10
 5.541549e-06 -1.334763e-10  2.916845e-11
 5.542104e-06  6.263520e-10 -6.972653e-11
 5.541523e-06  1.565394e-09 -7.712287e-11
 5.541572e-06  2.775118e-09  6.652829e-11
 5.539807e-06  4.193208e-09  3.499368e-10
 5.538113e-06  5.613467e-09  6.484693e-10
 5.534498e-06  6.892505e-09  8.978673e-10
 5.531203e-06  7.932056e-09  1.075199e-09
 5.526382e-06  8.668073e-09  1.176424e-09
 5.522302e-06  9.100226e-09  1.212163e-09
 5.517098e-06  9.243835e-09  1.195008e-09
 5.512968e-06  9.150411e-09  1.144676e-09
 5.507971e-06  8.865524e-09  1.073837e-09
 5.504231e-06  8.440184e-09  9.919280e-10
 5.499750e-06  7.912762e-09  9.046109e-10
 5.496605e-06  7.319737e-09  8.154004e-10
 5.492766e-06  6.688631e-09  7.280007e-10
 5.490280e-06  6.043698e-09  6.436085e-10
 5.487098e-06  5.403131e-09  5.647339e-10
 5.485247e-06  4.781690e-09  4.911770e-10
 5.482670e-06  4.189989e-09  4.245025e-10
 5.481386e-06  3.635629e-09  3.638196e-10
 5.479333e-06  3.123225e-09  3.099145e-10
 5.478528e-06  2.655037e-09  2.616719e-10
 5.476911e-06  2.231280e-09  2.193396e-10
 5.476497e-06  1.850545e-09  1.819424e-10
 5.475230e-06  1.510032e-09  1.493048e-10
 5.475129e-06  1.205876e-09  1.206910e-10
 5.474142e-06  9.333415e-10  9.554394e-11
 5.474291e-06  6.870376e-10  7.338612e-11
 5.473528e-06  4.610743e-10  5.327566e-11
 5.473884e-06  2.491992e-10  3.498702e-11
 5.473315e-06  4.494818e-11  1.722307e-11
 5.473858e-06 -1.582864e-10  1.966482e-14
 5.473474e-06 -3.670878e-10 -1.821459e-11
 5.474208e-06 -5.879936e-10 -3.717026e-11
 5.474026e-06 -8.272859e-10 -5.865643e-11
 5.474980e-06 -1.090989e-09 -8.209151e-11
 5.475039e-06 -1.384600e-09 -1.094277e-10
 5.476264e-06 -1.713079e-09 -1.398436e-10
 5.476625e-06 -2.080507e-09 -1.753795e-10
 5.478189e-06 -2.490039e-09 -2.150345e-10
 5.478928e-06 -2.943471e-09 -2.608730e-10
 5.480914e-06 -3.441162e-09 -3.117604e-10
 5.482117e-06 -3.981414e-09 -3.696232e-10
 5.484614e-06 -4.560491e-09 -4.331621e-10
 5.486369e-06 -5.171503e-09 -5.037312e-10
 5.489459e-06 -5.805163e-09 -5.797433e-10
 5.491841e-06 -6.447491e-09 -6.614305e-10
 5.848457e-06 -8.282480e-09 -8.501789e-10
 5.851613e-06 -8.983765e-09 -9.558446e-10
 5.856153e-06 -9.613088e-09 -1.060404e-09
 5.859983e-06 -1.013423e-08 -1.163817e-09
 5.865130e-06 -1.049435e-08 -1.254766e-09
 5.869449e-06 -1.064603e-08 -1.327419e-09
 5.874907e-06 -1.052536e-08 -1.360158e-09
 5.879279e-06 -1.009376e-08 -1.337205e-09
 5.884443e-06 -9.315417e-09 -1.233337e-09
 5.888095e-06 -8.219040e-09 -1.040115e-09
 5.892075e-06 -6.867138e-09 -7.672659e-10
 5.894135e-06 -5.392791e-09 -4.558562e-10
 5.896240e-06 -3.886070e-09 -1.410410e-10
 5.896457e-06 -2.502128e-09  4.833244e-11
 5.897210e-06 -1.296785e-09  8.588134e-11
 5.896759e-06 -2.301497e-10  2.171720e-11
 5.897300e-06  8.348663e-10 -5.076221e-11
 5.896672e-06  2.038879e-09 -3.274951e-11
 5.896640e-06  3.425505e-09  1.270150e-10
 5.894789e-06  4.954277e-09  4.201123e-10
 5.892992e-06  6.469654e-09  7.367782e-10
 5.889243e-06  7.874201e-09  1.019374e-09
 5.885770e-06  9.041086e-09  1.229050e-09
 5.880728e-06  9.901597e-09  1.354726e-09
 5.876405e-06  1.042251e-08  1.400019e-09
 5.870945e-06  1.062671e-08  1.385653e-09
 5.866574e-06  1.054552e-08  1.323574e-09
 5.861353e-06  1.023881e-08  1.237619e-09
 5.857422e-06  9.757221e-09  1.136181e-09
 5.852780e-06  9.153608e-09  1.031087e-09
 5.849509e-06  8.467937e-09  9.239818e-10
 5.845572e-06  7.736320e-09  8.206634e-10
 5.843016e-06  6.986134e-09  7.213436e-10
 5.839786e-06  6.240264e-09  6.293710e-10
 5.837909e-06  5.515914e-09  5.442422e-10
 5.835320e-06  4.826079e-09  4.676328e-10
 5.834038e-06  4.179762e-09  3.984605e-10
 5.831996e-06  3.582523e-09  3.373254e-10
 5.831209e-06  3.037208e-09  2.830334e-10
 5.829614e-06  2.544167e-09  2.356744e-10
 5.829225e-06  2.101820e-09  1.941799e-10
 5.827984e-06  1.706887e-09  1.582546e-10
 5.827908e-06  1.354819e-09  1.270725e-10
 5.826942e-06  1.040002e-09  9.995998e-11
 5.827109e-06  7.560408e-10  7.632668e-11
 5.826360e-06  4.959597e-10  5.511109e-11
 5.826725e-06  2.523694e-10  3.596639e-11
 5.826159e-06  1.765538e-11  1.748225e-11
 5.826700e-06 -2.159615e-10 -4.301941e-13
 5.826309e-06 -4.562217e-10 -1.946939e-11
 5.827031e-06 -7.108316e-10 -3.945698e-11
 5.826832e-06 -9.872025e-10 -6.230593e-11
 5.827765e-06 -1.292469e-09 -8.757122e-11
 5.827801e-06 -1.633138e-09 -1.173002e-10
 5.829000e-06 -2.015089e-09 -1.508017e-10
 5.829336e-06 -2.443123e-09 -1.901948e-10
 5.830877e-06 -2.920927e-09 -2.346033e-10
 5.831596e-06 -3.450529e-09 -2.861756e-10
 5.833570e-06 -4.032196e-09 -3.438989e-10
 5.834769e-06 -4.663858e-09 -4.098738e-10
 5.837273e-06 -5.340762e-09 -4.828246e-10
 5.839050e-06 -6.055120e-09 -5.646093e-10
 5.842182e-06 -6.794863e-09 -6.530810e-10
 5.844626e-06 -7.544636e-09 -7.495066e-10
 6.145534e-06 -9.213956e-09 -9.716519e-10
 6.148780e-06 -9.992069e-09 -1.098016e-09
 6.153441e-06 -1.068690e-08 -1.227845e-09
 6.157435e-06 -1.124660e-08 -1.352756e-09
 6.162774e-06 -1.162173e-08 -1.466218e-09
 6.167320e-06 -1.174578e-08 -1.548461e-09
 6.173012e-06 -1.157183e-08 -1.582555e-09
 6.177617e-06 -1.104975e-08 -1.540716e-09
 6.182979e-06 -1.018327e-08 -1.406871e-09
 6.186788e-06 -9.000968e-09 -1.177978e-09
 6.190882e-06 -7.602792e-09 -8.824384e-10
 6.193038e-06 -6.078363e-09 -5.601617e-10
 6.195250e-06 -4.517596e-09 -2.399892e-10
 6.195577e-06 -3.002513e-09 -3.767168e-11
 6.196428e-06 -1.579900e-09  2.990626e-11
 6.196019e-06 -2.192846e-10  1.119338e-11
 6.196546e-06  1.148235e-09 -1.235419e-11
 6.195840e-06  2.587464e-09  4.108150e-11
 6.195706e-06  4.126241e-09  2.199289e-10
 6.193747e-06  5.722946e-09  5.213054e-10
 6.191849e-06  7.294910e-09  8.504371e-10
 6.187982e-06  8.750676e-09  1.155425e-09
 6.184353e-06  1.000308e-08  1.399593e-09
 6.179118e-06  1.095090e-08  1.554028e-09
 6.174570e-06  1.155857e-08  1.617557e-09
 6.168878e-06  1.181808e-08  1.604638e-09
 6.164276e-06  1.176938e-08  1.537489e-09
 6.158854e-06  1.145468e-08  1.432295e-09
 6.154750e-06  1.093809e-08  1.309634e-09
 6.149976e-06  1.027244e-08  1.180079e-09
 6.146605e-06  9.510223e-09  1.051326e-09
 6.142604e-06  8.691015e-09  9.273498e-10
 6.140013e-06  7.849209e-09  8.101290e-10
 6.136771e-06  7.010623e-09  7.021619e-10
 6.134903e-06  6.195865e-09  6.033651e-10
 6.132338e-06  5.419749e-09  5.149679e-10
 6.131091e-06  4.692781e-09  4.357316e-10
 6.129093e-06  4.021611e-09  3.661319e-10
 6.128356e-06  3.409625e-09  3.048115e-10
 6.126811e-06  2.857341e-09  2.517119e-10
 6.126474e-06  2.362962e-09  2.056498e-10
 6.125280e-06  1.922727e-09  1.661953e-10
 6.125247e-06  1.531358e-09  1.323864e-10
 6.124317e-06  1.182358e-09  1.033881e-10
 6.124514e-06  8.683683e-10  7.845335e-11
 6.123787e-06  5.814122e-10  5.637131e-11
 6.124165e-06  3.131098e-10  3.664141e-11
 6.123604e-06  5.485929e-11  1.772913e-11
 6.124143e-06 -2.020819e-10 -6.043048e-13
 6.123740e-06 -4.664326e-10 -2.016652e-11
 6.124443e-06 -7.468711e-10 -4.094200e-11
 6.124216e-06 -1.051817e-09 -6.495707e-11
 6.125116e-06 -1.389400e-09 -9.195333e-11
 6.125109e-06 -1.767122e-09 -1.240973e-10
 6.126263e-06 -2.191761e-09 -1.608919e-10
 6.126549e-06 -2.668904e-09 -2.045554e-10
 6.128039e-06 -3.202790e-09 -2.543861e-10
 6.128709e-06 -3.795737e-09 -3.126041e-10
 6.130637e-06 -4.447947e-09 -3.783850e-10
 6.131798e-06 -5.156823e-09 -4.538631e-10
 6.134276e-06 -5.916878e-09 -5.381350e-10
 6.136040e-06 -6.718622e-09 -6.328486e-10
 6.139176e-06 -7.548988e-09 -7.369443e-10
 6.141649e-06 -8.388508e-09 -8.503884e-10
 6.393982e-06 -9.941017e-09 -1.118096e-09
 6.397293e-06 -1.077409e-08 -1.274189e-09
 6.402067e-06 -1.150359e-08 -1.431111e-09
 6.406207e-06 -1.208029e-08 -1.585122e-09
 6.411742e-06 -1.243895e-08 -1.715274e-09
 6.416501e-06 -1.252825e-08 -1.806935e-09
 6.422423e-06 -1.229047e-08 -1.829256e-09
 6.427234e-06 -1.171126e-08 -1.763053e-09
 6.432771e-06 -1.079273e-08 -1.595459e-09
 6.436709e-06 -9.601813e-09 -1.342630e-09
 6.440914e-06 -8.202259e-09 -1.034100e-09
 6.443185e-06 -6.686605e-09 -7.043206e-10
 6.445529e-06 -5.095724e-09 -3.771769e-10
 6.446001e-06 -3.498884e-09 -1.557521e-10
 6.446972e-06 -1.898533e-09 -4.634208e-11
 6.446624e-06 -2.956241e-10 -2.293617e-13
 6.447121e-06  1.318047e-09  4.276009e-11
 6.446316e-06  2.949375e-09  1.451357e-10
 6.446048e-06  4.587541e-09  3.492520e-10
 6.443956e-06  6.225731e-09  6.615957e-10
 6.441939e-06  7.797541e-09  1.000020e-09
 6.437956e-06  9.259039e-09  1.319554e-09
 6.434193e-06  1.052277e-08  1.587499e-09
 6.428782e-06  1.152218e-08  1.775233e-09
 6.424030e-06  1.218708e-08  1.862453e-09
 6.418113e-06  1.250871e-08  1.861140e-09
 6.413297e-06  1.249819e-08  1.787429e-09
 6.407672e-06  1.220567e-08  1.669651e-09
 6.403409e-06  1.167987e-08  1.520799e-09
 6.398511e-06  1.098464e-08  1.363959e-09
 6.395064e-06  1.017263e-08  1.205946e-09
 6.391019e-06  9.293426e-09  1.056466e-09
 6.388418e-06  8.384870e-09  9.163167e-10
 6.385192e-06  7.478002e-09  7.888598e-10
 6.383360e-06  6.595781e-09  6.730920e-10
 6.380848e-06  5.755413e-09  5.700310e-10
 6.379668e-06  4.969117e-09  4.783874e-10
 6.377743e-06  4.244564e-09  3.983552e-10
 6.377084e-06  3.585663e-09  3.284719e-10
 6.375616e-06  2.992965e-09  2.685020e-10
 6.375352e-06  2.464354e-09  2.171379e-10
 6.374224e-06  1.995433e-09  1.737304e-10
 6.374250e-06  1.580109e-09  1.371062e-10
 6.373369e-06  1.210998e-09  1.061969e-10
 6.373605e-06  8.798561e-10  8.004350e-11
 6.372905e-06  5.778784e-10  5.723848e-11
 6.373301e-06  2.959229e-10  3.710305e-11
 6.372747e-06  2.468998e-11  1.795334e-11
 6.373282e-06 -2.452219e-10 -6.033368e-13
 6.372864e-06 -5.231858e-10 -2.050473e-11
 6.373543e-06 -8.185657e-10 -4.190317e-11
 6.373280e-06 -1.140526e-09 -6.697691e-11
 6.374134e-06 -1.498012e-09 -9.568151e-11
 6.374072e-06 -1.899400e-09 -1.303730e-10
 6.375161e-06 -2.352359e-09 -1.708061e-10
 6.375375e-06 -2.863308e-09 -2.193902e-10
 6.376790e-06 -3.437158e-09 -2.756514e-10
 6.377382e-06 -4.076639e-09 -3.419443e-10
 6.379237e-06 -4.781971e-09 -4.176104e-10
 6.380329e-06 -5.550165e-09 -5.049235e-10
 6.382751e-06 -6.374598e-09 -6.030287e-10
 6.384473e-06 -7.244587e-09 -7.140985e-10
 6.387589e-06 -8.144220e-09 -8.365803e-10
 6.390063e-06 -9.052897e-09 -9.725516e-10
 6.599049e-06 -1.022269e-08 -1.300325e-09
 6.602424e-06 -1.106734e-08 -1.488319e-09
 6.607299e-06 -1.179540e-08 -1.680239e-09
 6.611600e-06 -1.234612e-08 -1.857299e-09
 6.617321e-06 -1.266792e-08 -2.004250e-09
 6.622301e-06 -1.270127e-08 -2.090873e-09
 6.628429e-06 -1.242041e-08 -2.095400e-09
 6.633428e-06 -1.180886e-08 -1.999527e-09
 6.639107e-06 -1.090470e-08 -1.809679e-09
 6.643169e-06 -9.745150e-09 -1.543263e-09
 6.647496e-06 -8.403857e-09 -1.226120e-09
 6.649911e-06 -6.925910e-09 -8.902900e-10
 6.652421e-06 -5.358515e-09 -5.502694e-10
 6.653068e-06 -3.714628e-09 -2.996549e-10
 6.654182e-06 -2.009251e-09 -1.334406e-10
 6.653899e-06 -2.542734e-10 -1.269412e-11
 6.654362e-06  1.514169e-09  1.074655e-10
 6.653439e-06  3.254469e-09  2.706535e-10
 6.653007e-06  4.948985e-09  5.114376e-10
 6.650752e-06  6.572922e-09  8.413114e-10
 6.648586e-06  8.110358e-09  1.189102e-09
 6.644474e-06  9.515083e-09  1.518458e-09
 6.640580e-06  1.074443e-08  1.801489e-09
 6.635022e-06  1.172570e-08  2.011775e-09
 6.630081e-06  1.241761e-08  2.129057e-09
 6.623957e-06  1.277798e-08  2.145365e-09
 6.618922e-06  1.281771e-08  2.076767e-09
 6.613106e-06  1.256053e-08  1.944834e-09
 6.608674e-06  1.206089e-08  1.776513e-09
 6.603660e-06  1.136937e-08  1.587395e-09
 6.600138e-06  1.054611e-08  1.396971e-09
 6.596063e-06  9.640807e-09  1.214965e-09
 6.593466e-06  8.698007e-09  1.046779e-09
 6.590274e-06  7.751801e-09  8.944040e-10
 6.588503e-06  6.829339e-09  7.569983e-10
 6.586071e-06  5.950705e-09  6.354324e-10
 6.584985e-06  5.129967e-09  5.280687e-10
 6.583161e-06  4.375861e-09  4.349818e-10
 6.582604e-06  3.692640e-09  3.545651e-10
 6.581236e-06  3.080709e-09  2.864075e-10
 6.581064e-06  2.537366e-09  2.289160e-10
 6.580018e-06  2.057430e-09  1.811020e-10
 6.580113e-06  1.633971e-09  1.414619e-10
 6.579289e-06  1.258828e-09  1.086017e-10
 6.579570e-06  9.231062e-10  8.128013e-11
 6.578902e-06  6.174880e-10  5.784743e-11
 6.579318e-06  3.324613e-10  3.741879e-11
 6.578771e-06  5.845789e-11  1.814996e-11
 6.579302e-06 -2.141245e-10 -5.123298e-13
 6.578868e-06 -4.948610e-10 -2.063806e-11
 6.579518e-06 -7.933570e-10 -4.255958e-11
 6.579214e-06 -1.119128e-09 -6.862564e-11
 6.580015e-06 -1.481591e-09 -9.904851e-11
 6.579886e-06 -1.889760e-09 -1.364353e-10
 6.580897e-06 -2.352060e-09 -1.808863e-10
 6.581022e-06 -2.875762e-09 -2.351205e-10
 6.582340e-06 -3.466580e-09 -2.990247e-10
 6.582830e-06 -4.127891e-09 -3.752033e-10
 6.584583e-06 -4.860214e-09 -4.632475e-10
 6.585580e-06 -5.660321e-09 -5.655223e-10
 6.587918e-06 -6.520762e-09 -6.814352e-10
 6.589576e-06 -7.428758e-09 -8.129385e-10
 6.592649e-06 -8.366341e-09 -9.596235e-10
 6.595112e-06 -9.307982e-09 -1.122132e-09
 6.764658e-06 -1.010478e-08 -1.520864e-09
 6.768101e-06 -1.091815e-08 -1.745291e-09
 6.773102e-06 -1.159850e-08 -1.963934e-09
 6.777559e-06 -1.209748e-08 -2.163877e-09
 6.783482e-06 -1.235924e-08 -2.312008e-09