# vtk DataFile Version 2.0
Generated by ludwig extract.c
ASCII
DATASET STRUCTURED_POINTS
DIMENSIONS 64 32 32
ORIGIN 0 0 0
SPACING 1 1 1
POINT_DATA 65536
VECTORS velocity_field float
 1.113792e-06 -2.752961e-10 -2.752961e-10
 1.114231e-06 -3.014130e-10 -3.014130e-10
 1.115747e-06 -3.260826e-10 -3.260826e-10
 1.116336e-06 -3.477446e-10 -3.477446e-10
 1.117984e-06 -3.652581e-10 -3.652581e-10
 1.118678e-06 -3.762144e-10 -3.762144e-10
 1.120393e-06 -3.789847e-10 -3.789847e-10
 1.121101e-06 -3.701214e-10 -3.701213e-10
 1.122761e-06 -3.475100e-10 -3.475099e-10
 1.123325e-06 -3.064146e-10 -3.064147e-10
 1.124729e-06 -2.437217e-10 -2.437217e-10
 1.124902e-06 -1.531454e-10 -1.531454e-10
 1.125755e-06 -3.336236e-11 -3.336238e-11
 1.125326e-06  3.375987e-11  3.375988e-11
 1.125777e-06  4.505921e-11  4.505918e-11
 1.125242e-06  2.386191e-11  2.386193e-11
 1.125772e-06  5.085169e-14  5.088291e-14
 1.125331e-06  3.364260e-12  3.364264e-12
 1.125805e-06  5.355339e-11  5.355339e-11
 1.125045e-06  1.572264e-10  1.572264e-10
 1.124971e-06  2.603875e-10  2.603875e-10
 1.123632e-06  3.326878e-10  3.326877e-10
 1.123110e-06  3.804569e-10  3.804569e-10
 1.121473e-06  4.084969e-10  4.084969e-10
 1.120774e-06  4.212525e-10  4.212525e-10
 1.119056e-06  4.216486e-10  4.216487e-10
 1.118351e-06  4.128334e-10  4.128334e-10
 1.116686e-06  3.969364e-10  3.969364e-10
 1.116076e-06  3.762062e-10  3.762062e-10
 1.114536e-06  3.521184e-10  3.521183e-10
 1.114071e-06  3.261525e-10  3.261525e-10
 1.112689e-06  2.992608e-10  2.992608e-10
 1.112387e-06  2.723448e-10  2.723448e-10
 1.111167e-06  2.459715e-10  2.459715e-10
 1.111025e-06  2.206397e-10  2.206397e-10
 1.109958e-06  1.966418e-10  1.966418e-10
 1.109961e-06  1.742036e-10  1.742036e-10
 1.109030e-06  1.534257e-10  1.534258e-10
 1.109158e-06  1.343526e-10  1.343527e-10
 1.108342e-06  1.169532e-10  1.169532e-10
 1.108575e-06  1.011521e-10  1.011521e-10
 1.107855e-06  8.683057e-11  8.683054e-11
 1.108174e-06  7.383552e-11  7.383552e-11
 1.107532e-06  6.199177e-11  6.199177e-11
 1.107923e-06  5.109649e-11  5.109650e-11
 1.107347e-06  4.094107e-11  4.094107e-11
 1.107799e-06  3.129295e-11  3.129295e-11
 1.107281e-06  2.192833e-11  2.192834e-11
 1.107791e-06  1.260007e-11  1.260005e-11
 1.107329e-06  3.083100e-12  3.083120e-12
 1.107897e-06 -6.870191e-12 -6.870188e-12
 1.107496e-06 -1.747242e-11 -1.747241e-11
 1.108127e-06 -2.895803e-11 -2.895800e-11
 1.107796e-06 -4.151274e-11 -4.151270e-11
 1.108504e-06 -5.534047e-11 -5.534039e-11
 1.108257e-06 -7.058018e-11 -7.058015e-11
 1.109057e-06 -8.738489e-11 -8.738486e-11
 1.108912e-06 -1.058188e-10 -1.058188e-10
 1.109824e-06 -1.259566e-10 -1.259566e-10
 1.109800e-06 -1.477454e-10 -1.477454e-10
 1.110845e-06 -1.711445e-10 -1.711445e-10
 1.110964e-06 -1.959186e-10 -1.959186e-10
 1.112159e-06 -2.218650e-10 -2.218650e-10
 1.112435e-06 -2.484670e-10 -2.484670e-10
 2.315735e-06 -9.184237e-10 -2.941795e-10
 2.317054e-06 -9.990926e-10 -3.219128e-10
 2.319520e-06 -1.074102e-09 -3.480355e-10
 2.321121e-06 -1.140654e-09 -3.718057e-10
 2.323835e-06 -1.192519e-09 -3.909579e-10
 2.325632e-06 -1.225795e-09 -4.043346e-10
 2.328465e-06 -1.231361e-09 -4.083433e-10
 2.330280e-06 -1.204334e-09 -4.012395e-10
 2.332999e-06 -1.132392e-09 -3.777428e-10
 2.334533e-06 -1.010210e-09 -3.347851e-10
 2.336766e-06 -8.230375e-10 -2.640586e-10
 2.337573e-06 -5.750615e-10 -1.600226e-10
 2.338780e-06 -2.241438e-10 -1.056815e-11
 2.338450e-06 -3.349742e-11  6.408176e-11
 2.338888e-06  1.581010e-11  6.690723e-11
 2.338338e-06 -2.157206e-11  2.655838e-11
 2.338886e-06 -6.403090e-11 -1.665008e-11
 2.338472e-06 -3.461574e-11 -2.550673e-11
 2.338887e-06  1.200890e-10  2.715461e-11
 2.337856e-06  4.231759e-10  1.524041e-10
 2.337232e-06  7.112004e-10  2.753841e-10
 2.335119e-06  9.182436e-10  3.577262e-10
 2.333664e-06  1.060496e-09  4.094611e-10
 2.330990e-06  1.147251e-09  4.388342e-10
 2.329193e-06  1.187145e-09  4.506530e-10
 2.326356e-06  1.190799e-09  4.497357e-10
 2.324540e-06  1.165131e-09  4.388115e-10
 2.321794e-06  1.118308e-09  4.210891e-10
 2.320153e-06  1.055566e-09  3.983484e-10
 2.317642e-06  9.826604e-10  3.726411e-10
 2.316275e-06  9.032511e-10  3.450795e-10
 2.314064e-06  8.210606e-10  3.168881e-10
 2.313009e-06  7.384489e-10  2.887307e-10
 2.311111e-06  6.576132e-10  2.612816e-10
 2.310364e-06  5.799171e-10  2.349053e-10
 2.308763e-06  5.064875e-10  2.099261e-10
 2.308297e-06  4.379548e-10  1.865037e-10
 2.306959e-06  3.747211e-10  1.647433e-10
 2.306737e-06  3.168945e-10  1.446618e-10
 2.305623e-06  2.643994e-10  1.262283e-10
 2.305606e-06  2.169844e-10  1.093582e-10
 2.304677e-06  1.742669e-10  9.393584e-11
 2.304828e-06  1.357562e-10  7.980461e-11
 2.304052e-06  1.008763e-10  6.679602e-11
 2.304341e-06  6.898825e-11  5.470567e-11
 2.303693e-06  3.940724e-11  4.333686e-11
 2.304102e-06  1.141630e-11  3.245629e-11
 2.303567e-06 -1.572147e-11  2.185531e-11
 2.304085e-06 -4.275290e-11  1.128605e-11
 2.303660e-06 -7.042600e-11  5.403594e-13
 2.304290e-06 -9.948043e-11 -1.063177e-11
 2.303982e-06 -1.306391e-10 -2.242610e-11
 2.304737e-06 -1.645953e-10 -3.508228e-11
 2.304565e-06 -2.020020e-10 -4.877103e-11
 2.305468e-06 -2.434506e-10 -6.370512e-11
 2.305458e-06 -2.894598e-10 -8.001325e-11
 2.306541e-06 -3.404354e-10 -9.785516e-11
 2.306730e-06 -3.966824e-10 -1.172976e-10
 2.308031e-06 -4.583050e-10 -1.384127e-10
 2.308457e-06 -5.252952e-10 -1.611848e-10
 2.310015e-06 -5.972758e-10 -1.855405e-10
 2.310717e-06 -6.737964e-10 -2.113567e-10
 2.312567e-06 -7.537295e-10 -2.383191e-10
 2.313573e-06 -8.360271e-10 -2.661614e-10
 3.240744e-06 -1.922614e-09 -3.875019e-10
 3.242672e-06 -2.094103e-09 -4.244594e-10
 3.245794e-06 -2.253797e-09 -4.602402e-10
 3.248096e-06 -2.391766e-09 -4.924838e-10
 3.251543e-06 -2.499519e-09 -5.199864e-10
 3.254098e-06 -2.562440e-09 -5.388074e-10
 3.257697e-06 -2.569414e-09 -5.469506e-10
 3.260267e-06 -2.500678e-09 -5.382742e-10
 3.263703e-06 -2.343180e-09 -5.093082e-10
 3.265889e-06 -2.073648e-09 -4.496977e-10
 3.268672e-06 -1.687429e-09 -3.531250e-10
 3.269884e-06 -1.172882e-09 -2.065508e-10
 3.271354e-06 -5.338624e-10 -7.780650e-12
 3.271160e-06 -1.264271e-10  9.544152e-11
 3.271646e-06  1.446168e-11  9.263824e-11
 3.271105e-06  8.334899e-12  2.980374e-11
 3.271654e-06 -9.875347e-12 -3.912317e-11
 3.271211e-06  9.912134e-11 -5.841960e-11
 3.271525e-06  4.455850e-10  1.413978e-11
 3.270267e-06  1.025708e-09  1.828707e-10
 3.269278e-06  1.584584e-09  3.496968e-10
 3.266658e-06  2.012000e-09  4.638863e-10
 3.264580e-06  2.317209e-09  5.356014e-10
 3.261204e-06  2.507351e-09  5.739295e-10
 3.258660e-06  2.601332e-09  5.885975e-10
 3.255058e-06  2.615271e-09  5.851690e-10
 3.252478e-06  2.567552e-09  5.692176e-10
 3.248990e-06  2.471520e-09  5.438817e-10
 3.246636e-06  2.341154e-09  5.126958e-10
 3.243455e-06  2.186511e-09  4.775784e-10
 3.241464e-06  2.017330e-09  4.406444e-10
 3.238679e-06  1.840549e-09  4.030121e-10
 3.237101e-06  1.662387e-09  3.658557e-10
 3.234733e-06  1.487194e-09  3.297841e-10
 3.233566e-06  1.318535e-09  2.953787e-10
 3.231594e-06  1.158769e-09  2.629226e-10
 3.230802e-06  1.009568e-09  2.326364e-10
 3.229182e-06  8.718330e-10  2.045903e-10
 3.228717e-06  7.459321e-10  1.787875e-10
 3.227397e-06  6.317438e-10  1.551584e-10
 3.227206e-06  5.287646e-10  1.335733e-10
 3.226134e-06  4.361782e-10  1.138685e-10
 3.226167e-06  3.529127e-10  9.582929e-11
 3.225299e-06  2.777079e-10  7.923383e-11
 3.225518e-06  2.091538e-10  6.381657e-11
 3.224820e-06  1.457382e-10  4.932265e-11
 3.225199e-06  8.586970e-11  3.545433e-11
 3.224652e-06  2.791580e-11  2.194096e-11
 3.225177e-06 -2.978602e-11  8.468365e-12
 3.224776e-06 -8.889364e-11 -5.234504e-12
 3.225450e-06 -1.510541e-10 -1.948312e-11
 3.225206e-06 -2.178653e-10 -3.453457e-11
 3.226047e-06 -2.908680e-10 -5.069038e-11
 3.225983e-06 -3.714963e-10 -6.817884e-11
 3.227022e-06 -4.610620e-10 -8.727202e-11
 3.227177e-06 -5.606837e-10 -1.081505e-10
 3.228456e-06 -6.712668e-10 -1.310344e-10
 3.228876e-06 -7.933899e-10 -1.560200e-10
 3.230447e-06 -9.273251e-10 -1.832480e-10
 3.231186e-06 -1.072811e-09 -2.126777e-10
 3.233101e-06 -1.229199e-09 -2.443399e-10
 3.234207e-06 -1.394943e-09 -2.779626e-10
 3.236512e-06 -1.568099e-09 -3.134206e-10
 3.238025e-06 -1.745215e-09 -3.500495e-10
 3.976945e-06 -3.219570e-09 -4.929209e-10
 3.979302e-06 -3.498430e-09 -5.416458e-10
 3.982890e-06 -3.754443e-09 -5.883718e-10
 3.985688e-06 -3.975302e-09 -6.318596e-10
 3.989660e-06 -4.141668e-09 -6.680921e-10
 3.992756e-06 -4.236948e-09 -6.949802e-10
 3.996904e-06 -4.234434e-09 -7.059872e-10
 4.000013e-06 -4.113735e-09 -6.974008e-10
 4.003964e-06 -3.841539e-09 -6.578940e-10
 4.006609e-06 -3.401915e-09 -5.792298e-10
 4.009770e-06 -2.775407e-09 -4.470402e-10
 4.011268e-06 -1.991371e-09 -2.588657e-10
 4.012930e-06 -1.082969e-09 -1.555041e-11
 4.012850e-06 -4.492120e-10  1.142153e-10
 4.013390e-06 -1.535930e-10  1.119209e-10
 4.012869e-06 -5.862156e-11  3.108930e-11
 4.013410e-06  2.297141e-11 -5.693437e-11
 4.012933e-06  2.749717e-10 -8.160003e-11
 4.013154e-06  8.404269e-10  1.250849e-11
 4.011725e-06  1.696897e-09  2.240962e-10
 4.010474e-06  2.519092e-09  4.294980e-10
 4.007502e-06  3.194075e-09  5.810538e-10
 4.004988e-06  3.690307e-09  6.776940e-10
 4.001113e-06  4.011846e-09  7.296768e-10
 3.998035e-06  4.175412e-09  7.474224e-10
 3.993883e-06  4.210992e-09  7.421179e-10
 3.990759e-06  4.142308e-09  7.195279e-10
 3.986739e-06  3.994978e-09  6.857037e-10
 3.983879e-06  3.788109e-09  6.438714e-10
 3.980222e-06  3.540690e-09  5.977133e-10
 3.977790e-06  3.266830e-09  5.491441e-10
 3.974601e-06  2.979478e-09  5.002481e-10
 3.972657e-06  2.688139e-09  4.520904e-10
 3.969961e-06  2.400865e-09  4.057355e-10
 3.968503e-06  2.123379e-09  3.617055e-10
 3.966274e-06  1.860054e-09  3.204461e-10
 3.965259e-06  1.613720e-09  2.821320e-10
 3.963446e-06  1.386110e-09  2.468497e-10
 3.962816e-06  1.177944e-09  2.145516e-10
 3.961356e-06  9.891362e-10  1.851219e-10
 3.961048e-06  8.189211e-10  1.583651e-10
 3.959879e-06  6.659813e-10  1.340489e-10
 3.959835e-06  5.285718e-10  1.118860e-10
 3.958905e-06  4.046103e-10  9.158437e-11
 3.959078e-06  2.917610e-10  7.279917e-11
 3.958348e-06  1.874992e-10  5.520160e-11
 3.958706e-06  8.916894e-11  3.840828e-11
 3.958152e-06 -5.970401e-12  2.207017e-11
 3.958681e-06 -1.007030e-10  5.782763e-12
 3.958297e-06 -1.978165e-10 -1.080478e-11
 3.958999e-06 -3.000653e-10 -2.809754e-11
 3.958797e-06 -4.101282e-10 -4.642756e-11
 3.959695e-06 -5.305659e-10 -6.618115e-11
 3.959704e-06 -6.637669e-10 -8.765548e-11
 3.960833e-06 -8.118868e-10 -1.112026e-10
 3.961099e-06 -9.767727e-10 -1.370695e-10
 3.962511e-06 -1.159863e-09 -1.655490e-10
 3.963088e-06 -1.362101e-09 -1.968110e-10
 3.964844e-06 -1.583753e-09 -2.310270e-10
 3.965796e-06 -1.824400e-09 -2.682494e-10
 3.967958e-06 -2.082547e-09 -3.084340e-10
 3.969345e-06 -2.355858e-09 -3.514709e-10
 3.971966e-06 -2.640236e-09 -3.969242e-10
 3.973833e-06 -2.930744e-09 -4.444478e-10
 4.577812e-06 -4.516861e-09 -5.956583e-10
 4.580477e-06 -4.905680e-09 -6.561077e-10
 4.584401e-06 -5.262185e-09 -7.154847e-10
 4.587565e-06 -5.563990e-09 -7.698057e-10
 4.591924e-06 -5.790285e-09 -8.172882e-10
 4.595428e-06 -5.909257e-09 -8.512627e-10
 4.599989e-06 -5.894214e-09 -8.684446e-10
 4.603511e-06 -5.703541e-09 -8.569070e-10
 4.607848e-06 -5.310249e-09 -8.080085e-10
 4.610836e-06 -4.680413e-09 -7.036676e-10
 4.614276e-06 -3.825689e-09 -5.370957e-10
 4.615981e-06 -2.790918e-09 -3.074496e-10
 4.617785e-06 -1.666042e-09 -3.091627e-11
 4.617790e-06 -8.104399e-10  1.224382e-10
 4.618374e-06 -3.217421e-10  1.218320e-10
 4.617867e-06 -5.174393e-11  3.059103e-11
 4.618408e-06  2.029602e-10 -6.914518e-11
 4.617901e-06  6.493158e-10 -9.448925e-11
 4.618055e-06  1.440218e-09  1.967589e-11
 4.616496e-06  2.533049e-09  2.666585e-10
 4.615051e-06  3.598007e-09  5.087082e-10
 4.611820e-06  4.501308e-09  6.930661e-10
 4.608980e-06  5.197782e-09  8.188604e-10
 4.604730e-06  5.659336e-09  8.856784e-10
 4.601245e-06  5.907542e-09  9.088734e-10
 4.596680e-06  5.970662e-09  9.000038e-10
 4.593144e-06  5.888034e-09  8.708387e-10
 4.588730e-06  5.689865e-09  8.268666e-10
 4.585497e-06  5.407309e-09  7.741543e-10
 4.581494e-06  5.063869e-09  7.157396e-10
 4.578744e-06  4.681928e-09  6.551777e-10
 4.575270e-06  4.278342e-09  5.942230e-10
 4.573070e-06  3.867937e-09  5.347667e-10
 4.570149e-06  3.461693e-09  4.777198e-10
 4.568492e-06  3.068466e-09  4.239357e-10
 4.566092e-06  2.694489e-09  3.737819e-10
 4.564930e-06  2.344169e-09  3.275030e-10
 4.562992e-06  2.020137e-09  2.851280e-10
 4.562256e-06  1.723613e-09  2.465645e-10
 4.560708e-06  1.454594e-09  2.116266e-10
 4.560327e-06  1.212070e-09  1.800344e-10
 4.559101e-06  9.942362e-10  1.514843e-10
 4.559010e-06  7.986441e-10  1.256084e-10
 4.558044e-06  6.223509e-10  1.020386e-10
 4.558190e-06  4.620294e-10  8.034828e-11
 4.557442e-06  3.140717e-10  6.012772e-11
 4.557789e-06  1.746650e-10  4.090562e-11
 4.557230e-06  3.986757e-11  2.224468e-11
 4.557761e-06 -9.433328e-11  3.646486e-12
 4.557386e-06 -2.319532e-10 -1.533008e-11
 4.558105e-06 -3.769583e-10 -3.518204e-11
 4.557927e-06 -5.331940e-10 -5.632613e-11
 4.558858e-06 -7.043280e-10 -7.923387e-11
 4.558910e-06 -8.937618e-10 -1.042797e-10
 4.560095e-06 -1.104553e-09 -1.318957e-10
 4.560428e-06 -1.339293e-09 -1.624020e-10
 4.561924e-06 -1.599990e-09 -1.961767e-10
 4.562601e-06 -1.887883e-09 -2.334532e-10
 4.564476e-06 -2.203312e-09 -2.745150e-10
 4.565569e-06 -2.545379e-09 -3.194003e-10
 4.567894e-06 -2.912000e-09 -3.682301e-10
 4.569471e-06 -3.299175e-09 -4.206810e-10
 4.572310e-06 -3.701531e-09 -4.766427e-10
 4.574423e-06 -4.110647e-09 -5.351227e-10
 5.076780e-06 -5.897255e-09 -6.910199e-10
 5.079666e-06 -6.396970e-09 -7.646883e-10
 5.083841e-06 -6.850228e-09 -8.362254e-10
 5.087281e-06 -7.233502e-09 -9.041296e-10
 5.091944e-06 -7.511837e-09 -9.621636e-10
 5.095767e-06 -7.653741e-09 -1.007581e-09
 5.100663e-06 -7.611442e-09 -1.028746e-09
 5.104514e-06 -7.348889e-09 -1.017063e-09
 5.109164e-06 -6.818740e-09 -9.527247e-10
 5.112423e-06 -6.012260e-09 -8.233167e-10
 5.116076e-06 -4.943028e-09 -6.187139e-10
 5.117935e-06 -3.707752e-09 -3.538646e-10
 5.119845e-06 -2.408762e-09 -5.333190e-11
 5.119922e-06 -1.356053e-09  1.156028e-10
 5.120540e-06 -6.364631e-10  1.221990e-10
 5.120053e-06 -1.366942e-10  2.797831e-11
 5.120590e-06  3.503428e-10 -7.516628e-11
 5.120063e-06  1.034874e-09 -9.405226e-11
 5.120155e-06  2.041660e-09  3.696909e-11
 5.118499e-06  3.327092e-09  3.096982e-10
 5.116907e-06  4.593163e-09  5.839017e-10
 5.113474e-06  5.708287e-09  8.025611e-10
 5.110379e-06  6.585055e-09  9.537308e-10
 5.105828e-06  7.194490e-09  1.040273e-09
 5.102018e-06  7.531501e-09  1.068426e-09
 5.097117e-06  7.634541e-09  1.057399e-09
 5.093256e-06  7.541709e-09  1.018822e-09
 5.088533e-06  7.299390e-09  9.643470e-10
 5.085015e-06  6.942734e-09  8.988099e-10
 5.080753e-06  6.506504e-09  8.279182e-10
 5.077774e-06  6.017017e-09  7.543186e-10
 5.074096e-06  5.498355e-09  6.811999e-10
 5.071722e-06  4.968721e-09  6.100395e-10
 5.068650e-06  4.443477e-09  5.423791e-10
 5.066867e-06  3.933946e-09  4.788923e-10
 5.064361e-06  3.448780e-09  4.201287e-10
 5.063112e-06  2.993863e-09  3.662439e-10
 5.061102e-06  2.572884e-09  3.172390e-10
 5.060309e-06  2.187581e-09  2.729309e-10
 5.058716e-06  1.838053e-09  2.330337e-10
 5.058300e-06  1.523090e-09  1.971885e-10
 5.057047e-06  1.240402e-09  1.650054e-10
 5.056936e-06  9.868456e-10  1.360354e-10
 5.055956e-06  7.585985e-10  1.098309e-10
 5.056092e-06  5.513244e-10  8.588287e-11
 5.055337e-06  3.602968e-10  6.369842e-11
 5.055680e-06  1.805089e-10  4.271358e-11
 5.055120e-06  6.772062e-12  2.240014e-11
 5.055652e-06 -1.661976e-10  2.161070e-12
 5.055280e-06 -3.436910e-10 -1.853717e-11
 5.056005e-06 -5.309265e-10 -4.028915e-11
 5.055836e-06 -7.329587e-10 -6.359816e-11
 5.056779e-06 -9.545914e-10 -8.902531e-11
 5.056850e-06 -1.200266e-09 -1.170220e-10
 5.058059e-06 -1.473950e-09 -1.481035e-10
 5.058425e-06 -1.778980e-09 -1.826649e-10
 5.059963e-06 -2.117903e-09 -2.211677e-10
 5.060694e-06 -2.492270e-09 -2.639396e-10
 5.062636e-06 -2.902359e-09 -3.113321e-10
 5.063811e-06 -3.346989e-09 -3.635458e-10
 5.066237e-06 -3.822974e-09 -4.206209e-10
 5.067934e-06 -4.325302e-09 -4.825210e-10
 5.070916e-06 -4.845915e-09 -5.486803e-10
 5.073197e-06 -5.374830e-09 -6.187387e-10
 5.495460e-06 -7.138394e-09 -7.865590e-10
 5.498509e-06 -7.741985e-09 -8.737678e-10
 5.502873e-06 -8.289186e-09 -9.610883e-10
 5.506534e-06 -8.743867e-09 -1.042768e-09
 5.511441e-06 -9.071378e-09 -1.116958e-09
 5.515536e-06 -9.220172e-09 -1.172477e-09
 5.520712e-06 -9.147382e-09 -1.201646e-09
 5.524848e-06 -8.795487e-09 -1.183613e-09
 5.529759e-06 -8.138731e-09 -1.103314e-09
 5.533241e-06 -7.162575e-09 -9.414606e-10
 5.537063e-06 -5.927698e-09 -7.006363e-10
 5.539039e-06 -4.535039e-09 -4.047387e-10
 5.541038e-06 -3.117793e-09 -9.289091e-11
 5.541183e-06 -1.880142e-09  8.881934e-11
 5.541852e-06 -9.155375e-10  1.089580e-10
 5.541383e-06 -1.409348e-10  2.318045e-11
 5.541921e-06  6.244477e-10 -7.164532e-11
 5.541359e-06  1.569056e-09 -7.544581e-11
 5.541392e-06  2.784275e-09  7.234096e-11
 5.539648e-06  4.207766e-09  3.592153e-10
 5.537940e-06  5.633255e-09  6.617905e-10
 5.534346e-06  6.917345e-09  9.143966e-10
 5.531040e-06  7.961687e-09  1.095530e-09
 5.526239e-06  8.702237e-09  1.199586e-09
 5.522150e-06  9.138577e-09  1.238740e-09
 5.516967e-06  9.286034e-09  1.223927e-09
 5.512830e-06  9.196034e-09  1.176488e-09
 5.507854e-06  8.914163e-09  1.107408e-09
 5.504107e-06  8.491350e-09  1.027755e-09
 5.499647e-06  7.965991e-09  9.415424e-10
 5.496497e-06  7.374494e-09  8.538584e-10
 5.492678e-06  6.744412e-09  7.668602e-10
 5.490188e-06  6.099942e-09  6.832019e-10
 5.487024e-06  5.459316e-09  6.040065e-10
 5.485170e-06  4.837253e-09  5.303589e-10
 5.482611e-06  4.244412e-09  4.626503e-10
 5.481323e-06  3.688364e-09  4.010532e-10
 5.479287e-06  3.173778e-09  3.454392e-10
 5.478477e-06  2.702904e-09  2.954938e-10
 5.476875e-06  2.276008e-09  2.508441e-10
 5.476456e-06  1.891691e-09  2.110224e-10
 5.475203e-06  1.547204e-09  1.755500e-10
 5.475096e-06  1.238711e-09  1.438867e-10
 5.474121e-06  9.615242e-10  1.155007e-10
 5.474262e-06  7.102964e-10  8.978948e-11
 5.473512e-06  4.791844e-10  6.616489e-11
 5.473858e-06  2.619918e-10  4.396073e-11
 5.473299e-06  5.229631e-11  2.254740e-11
 5.473830e-06 -1.564421e-10  1.221460e-12
 5.473456e-06 -3.707724e-10 -2.065263e-11
 5.474176e-06 -5.971553e-10 -4.377558e-11
 5.474002e-06 -8.418476e-10 -6.874908e-11
 5.474941e-06 -1.110791e-09 -9.623361e-11
 5.475008e-06 -1.409465e-09 -1.267691e-10
 5.476215e-06 -1.742747e-09 -1.609605e-10
 5.476583e-06 -2.114709e-09 -1.992851e-10
 5.478128e-06 -2.528424e-09 -2.422979e-10
 5.478874e-06 -2.985690e-09 -2.904100e-10
 5.480839e-06 -3.486787e-09 -3.441115e-10
 5.482050e-06 -4.030030e-09 -4.036488e-10
 5.484524e-06 -4.611608e-09 -4.693547e-10
 5.486287e-06 -5.224656e-09 -5.409403e-10
 5.489354e-06 -5.859822e-09 -6.183939e-10
 5.491744e-06 -6.503157e-09 -7.004057e-10
 5.848323e-06 -8.335519e-09 -8.894334e-10
 5.851488e-06 -9.036055e-09 -9.947304e-10
 5.856004e-06 -9.664090e-09 -1.099161e-09
 5.859844e-06 -1.018346e-08 -1.201533e-09
 5.864967e-06 -1.054131e-08 -1.291575e-09
 5.869297e-06 -1.069027e-08 -1.362559e-09
 5.874731e-06 -1.056642e-08 -1.393650e-09
 5.879116e-06 -1.013125e-08 -1.368464e-09
 5.884256e-06 -9.348940e-09 -1.262269e-09
 5.887923e-06 -8.248260e-09 -1.066331e-09
 5.891881e-06 -6.891743e-09 -7.905586e-10
 5.893956e-06 -5.412519e-09 -4.760459e-10
 5.896041e-06 -3.900703e-09 -1.578095e-10
 5.896275e-06 -2.511495e-09  3.495098e-11
 5.897009e-06 -1.300784e-09  7.629689e-11
 5.896576e-06 -2.287270e-10  1.567411e-11
 5.897101e-06  8.416751e-10 -5.278235e-11
 5.896492e-06  2.051001e-09 -3.121589e-11
 5.896445e-06  3.442777e-09  1.326371e-10
 5.894613e-06  4.976527e-09  4.291607e-10
 5.892803e-06  6.496622e-09  7.498241e-10
 5.889075e-06  7.905636e-09  1.035592e-09
 5.885591e-06  9.076650e-09  1.249028e-09
 5.880570e-06  9.940973e-09  1.377504e-09
 5.876238e-06  1.046529e-08  1.426176e-09
 5.870799e-06  1.067252e-08  1.414129e-09
 5.866420e-06  1.059389e-08  1.354913e-09
 5.861221e-06  1.028933e-08  1.270702e-09
 5.857285e-06  9.809368e-09  1.171498e-09
 5.852664e-06  9.206927e-09  1.067500e-09
 5.849387e-06  8.521896e-09  9.619076e-10
 5.845471e-06  7.790443e-09  8.589923e-10
 5.842911e-06  7.039883e-09  7.604005e-10
 5.839701e-06  6.293164e-09  6.681164e-10
 5.837820e-06  5.567443e-09  5.828996e-10
 5.835250e-06  4.875780e-09  5.052729e-10
 5.833963e-06  4.227148e-09  4.351976e-10
 5.831939e-06  3.627173e-09  3.723771e-10
 5.831148e-06  3.078687e-09  3.164015e-10
 5.829569e-06  2.582105e-09  2.667543e-10
 5.829175e-06  2.135851e-09  2.228619e-10
 5.827948e-06  1.736705e-09  1.841358e-10
 5.827865e-06  1.380140e-09  1.499369e-10
 5.826913e-06  1.060594e-09  1.196230e-10
 5.827071e-06  7.717138e-10  9.247440e-11
 5.826335e-06  5.065650e-10  6.778465e-11
 5.826689e-06  2.578157e-10  4.476664e-11
 5.826134e-06  1.788388e-11  2.267402e-11
 5.826663e-06 -2.209389e-10  6.839321e-13
 5.826282e-06 -4.663720e-10 -2.195452e-11
 5.826990e-06 -7.260397e-10 -4.606315e-11
 5.826799e-06 -1.007344e-09 -7.236050e-11
 5.827716e-06 -1.317329e-09 -1.016293e-10
 5.827760e-06 -1.662506e-09 -1.345215e-10
 5.828941e-06 -2.048657e-09 -1.717547e-10
 5.829284e-06 -2.480599e-09 -2.139050e-10
 5.830806e-06 -2.961922e-09 -2.616311e-10
 5.831532e-06 -3.494682e-09 -3.154506e-10
 5.833484e-06 -4.079050e-09 -3.759536e-10
 5.834690e-06 -4.712995e-09 -4.435836e-10
 5.837172e-06 -5.391675e-09 -5.186738e-10
 5.838957e-06 -6.107348e-09 -6.014632e-10
 5.842064e-06 -6.847868e-09 -6.913574e-10
 5.844516e-06 -7.597932e-09 -7.881044e-10
 6.145388e-06 -9.258162e-09 -1.010447e-09
 6.148644e-06 -1.003631e-08 -1.136445e-09
 6.153279e-06 -1.073075e-08 -1.266132e-09
 6.157284e-06 -1.128966e-08 -1.390013e-09
 6.162597e-06 -1.166357e-08 -1.502566e-09
 6.167155e-06 -1.178602e-08 -1.583158e-09
 6.172822e-06 -1.161008e-08 -1.615612e-09
 6.177440e-06 -1.108566e-08 -1.571564e-09
 6.182778e-06 -1.021647e-08 -1.435413e-09
 6.186602e-06 -9.031158e-09 -1.203835e-09
 6.190674e-06 -7.629657e-09 -9.054017e-10
 6.192846e-06 -6.101635e-09 -5.800569e-10
 6.195037e-06 -4.537033e-09 -2.565007e-10
 6.195381e-06 -3.017912e-09 -5.083389e-11
 6.196213e-06 -1.591105e-09  2.049731e-11
 6.195823e-06 -2.261816e-10  5.287545e-12
 6.196332e-06  1.145695e-09 -1.428520e-11
 6.195645e-06  2.589299e-09  4.266615e-11
 6.195496e-06  4.132398e-09  2.255502e-10
 6.193558e-06  5.733358e-09  5.303158e-10
 6.191646e-06  7.309443e-09  8.633917e-10
 6.187801e-06  8.769197e-09  1.171517e-09
 6.184160e-06  1.002538e-08  1.419391e-09
 6.178946e-06  1.097680e-08  1.576596e-09
 6.174389e-06  1.158778e-08  1.643452e-09
 6.168720e-06  1.185037e-08  1.632827e-09
 6.164109e-06  1.180441e-08  1.568495e-09
 6.158710e-06  1.149215e-08  1.465027e-09
 6.154600e-06  1.097761e-08  1.344560e-09
 6.149847e-06  1.031366e-08  1.216091e-09
 6.146472e-06  9.552725e-09  1.088819e-09
 6.142492e-06  8.734414e-09  9.652427e-10
 6.139896e-06  7.893061e-09  8.487293e-10
 6.136675e-06  7.054526e-09  7.404553e-10
 6.134803e-06  6.239371e-09  6.415598e-10
 6.132257e-06  5.462453e-09  5.521576e-10
 6.131006e-06  4.734247e-09  4.720184e-10
 6.129026e-06  4.061450e-09  4.007526e-10
 6.128284e-06  3.447432e-09  3.377590e-10
 6.126757e-06  2.892758e-09  2.823966e-10
 6.126414e-06  2.395631e-09  2.339566e-10
 6.125235e-06  1.952337e-09  1.917318e-10
 6.125195e-06  1.557612e-09  1.549351e-10
 6.124279e-06  1.205003e-09  1.227695e-10
 6.124468e-06  8.871821e-10  9.435629e-11
 6.123753e-06  5.962102e-10  6.883660e-11
 6.124121e-06  3.237521e-10  4.527639e-11
 6.123571e-06  6.123699e-11  2.279341e-11
 6.124097e-06 -2.000212e-10  4.303328e-13
 6.123705e-06 -4.687183e-10 -2.269366e-11
 6.124393e-06 -7.534668e-10 -4.753924e-11
 6.124175e-06 -1.062673e-09 -7.496664e-11
 6.125057e-06 -1.404392e-09 -1.059142e-10
 6.125060e-06 -1.786122e-09 -1.411881e-10
 6.126195e-06 -2.214565e-09 -1.816627e-10
 6.126488e-06 -2.695314e-09 -2.280538e-10
 6.127958e-06 -3.232528e-09 -2.811530e-10
 6.128635e-06 -3.828541e-09 -3.415937e-10
 6.130541e-06 -4.483479e-09 -4.101093e-10
 6.131710e-06 -5.194769e-09 -4.872238e-10
 6.134163e-06 -5.956851e-09 -5.735962e-10
 6.135936e-06 -6.760267e-09 -6.693024e-10
 6.139047e-06 -7.591887e-09 -7.747892e-10
 6.141528e-06 -8.432279e-09 -8.885498e-10
 6.393826e-06 -9.981779e-09 -1.156566e-09
 6.397146e-06 -1.081421e-08 -1.312302e-09
 6.401894e-06 -1.154266e-08 -1.469083e-09
 6.406045e-06 -1.211794e-08 -1.622080e-09
 6.411554e-06 -1.247478e-08 -1.751334e-09
 6.416325e-06 -1.256193e-08 -1.841368e-09
 6.422222e-06 -1.232166e-08 -1.862070e-09
 6.427046e-06 -1.173965e-08 -1.793689e-09
 6.432559e-06 -1.081802e-08 -1.623818e-09
 6.436512e-06 -9.623745e-09 -1.368341e-09
 6.440694e-06 -8.220595e-09 -1.056951e-09
 6.442981e-06 -6.701148e-09 -7.241422e-10
 6.445303e-06 -5.106314e-09 -3.936540e-10
 6.445793e-06 -3.505399e-09 -1.689198e-10
 6.446744e-06 -1.900905e-09 -5.579872e-11
 6.446416e-06 -2.938246e-10 -6.222196e-12
 6.446894e-06  1.323983e-09  4.069908e-11
 6.446110e-06  2.959382e-09  1.465546e-10
 6.445825e-06  4.601485e-09  3.546663e-10
 6.443755e-06  6.243467e-09  6.703678e-10
 6.441724e-06  7.818858e-09  1.012697e-09
 6.437762e-06  9.283729e-09  1.335341e-09
 6.433987e-06  1.055056e-08  1.606956e-09
 6.428599e-06  1.155282e-08  1.797436e-09
 6.423838e-06  1.222025e-08  1.887949e-09
 6.417943e-06  1.254411e-08  1.888914e-09
 6.413119e-06  1.253547e-08  1.817993e-09
 6.407517e-06  1.224449e-08  1.701930e-09
 6.403248e-06  1.171985e-08  1.555252e-09
 6.398372e-06  1.102543e-08  1.399496e-09
 6.394920e-06  1.021381e-08  1.242951e-09
 6.390897e-06  9.334654e-09  1.093875e-09
 6.388291e-06  8.425728e-09  9.544272e-10
 6.385086e-06  7.518130e-09  8.266748e-10
 6.383250e-06  6.634783e-09  7.108103e-10
 6.380758e-06  5.792943e-09  6.067619e-10
 6.379574e-06  5.004807e-09  5.142251e-10
 6.377668e-06  4.278096e-09  4.325497e-10
 6.377003e-06  3.616710e-09  3.610102e-10
 6.375553e-06  3.021249e-09  2.988052e-10
 6.375283e-06  2.489601e-09  2.450870e-10
 6.374171e-06  2.017415e-09  1.989404e-10
 6.374189e-06  1.598615e-09  1.593579e-10
 6.373323e-06  1.225857e-09  1.253150e-10
 6.373550e-06  8.909280e-10  9.571770e-11
 6.372863e-06  5.850575e-10  6.951032e-11
 6.373248e-06  2.991451e-10  4.558296e-11
 6.372706e-06  2.391784e-11  2.289812e-11
 6.373228e-06 -2.499735e-10  3.525929e-13
 6.372821e-06 -5.318843e-10 -2.307572e-11
 6.373484e-06 -8.311175e-10 -4.850238e-11
 6.373231e-06 -1.156829e-09 -7.695567e-11
 6.374067e-06 -1.517897e-09 -1.095699e-10
 6.374014e-06 -1.922698e-09 -1.473618e-10
 6.375084e-06 -2.378830e-09 -1.914350e-10
 6.375306e-06 -2.892724e-09 -2.427214e-10
 6.376700e-06 -3.469217e-09 -3.022146e-10
 6.377300e-06 -4.111059e-09 -3.707103e-10
 6.379131e-06 -4.818400e-09 -4.490798e-10
 6.380232e-06 -5.588280e-09 -5.380157e-10
 6.382628e-06 -6.414007e-09 -6.381963e-10
 6.384359e-06 -7.284935e-09 -7.502522e-10
 6.387450e-06 -8.185095e-09 -8.741079e-10
 6.389932e-06 -9.093925e-09 -1.010397e-09
 6.598883e-06 -1.025434e-08 -1.338425e-09
 6.602268e-06 -1.109913e-08 -1.526062e-09
 6.607117e-06 -1.182701e-08 -1.717830e-09
 6.611428e-06 -1.237728e-08 -1.893883e-09
 6.617124e-06 -1.269832e-08 -2.039933e-09
 6.622115e-06 -1.273064e-08 -2.124941e-09
 6.628218e-06 -1.244847e-08 -2.127856e-09
 6.633230e-06 -1.183534e-08 -2.029825e-09
 6.638884e-06 -1.092935e-08 -1.837712e-09
 6.642961e-06 -9.767730e-09 -1.568670e-09
 6.647265e-06 -8.424139e-09 -1.248688e-09
 6.649696e-06 -6.943695e-09 -9.098554e-10
 6.652185e-06 -5.373623e-09 -5.665178e-10
 6.652850e-06 -3.726908e-09 -3.126233e-10
 6.653944e-06 -2.018586e-09 -1.427322e-10
 6.653680e-06 -2.605736e-10 -1.855403e-11
 6.654125e-06  1.510950e-09  1.054989e-10
 6.653222e-06  3.254359e-09  2.721355e-10
 6.652774e-06  4.951959e-09  5.168760e-10
 6.650540e-06  6.578947e-09  8.500785e-10
 6.648360e-06  8.119346e-09  1.201734e-09
 6.644270e-06  9.526950e-09  1.534172e-09
 6.640365e-06  1.075903e-08  1.820831e-09
 6.634829e-06  1.174292e-08  2.033838e-09
 6.629878e-06  1.243726e-08  2.154373e-09
 6.623777e-06  1.279988e-08  2.172936e-09
 6.618734e-06  1.284165e-08  2.107091e-09
 6.612941e-06  1.258630e-08  1.976858e-09
 6.608503e-06  1.208822e-08  1.810680e-09
 6.603512e-06  1.139803e-08  1.622635e-09
 6.599984e-06  1.057580e-08  1.433654e-09
 6.595932e-06  9.671253e-09  1.252048e-09
 6.593329e-06  8.728899e-09  1.084546e-09
 6.590159e-06  7.782856e-09  9.318775e-10
 6.588384e-06  6.860234e-09  7.943662e-10
 6.585973e-06  5.981150e-09  6.718209e-10
 6.584882e-06  5.159646e-09  5.635632e-10
 6.583077e-06  4.404492e-09  4.688471e-10
 6.582515e-06  3.719925e-09  3.867814e-10
 6.581165e-06  3.106386e-09  3.164074e-10
 6.580986e-06  2.561169e-09  2.565766e-10
 6.579957e-06  2.079129e-09  2.060467e-10
 6.580045e-06  1.653343e-09  1.634700e-10
 6.579236e-06  1.275684e-09  1.275026e-10
 6.579507e-06  9.372756e-10  9.676475e-11
 6.578852e-06  6.288292e-10  6.995829e-11
 6.579257e-06  3.408643e-10  4.577040e-11
 6.578723e-06  6.383459e-11  2.299630e-11
 6.579240e-06 -2.118208e-10  3.816877e-13
 6.578817e-06 -4.956618e-10 -2.324114e-11
 6.579452e-06 -7.972442e-10 -4.915171e-11
 6.579158e-06 -1.126075e-09 -7.856803e-11
 6.579940e-06 -1.491518e-09 -1.128604e-10
 6.579820e-06 -1.902585e-09 -1.533203e-10
 6.580812e-06 -2.367644e-09 -2.013717e-10
 6.580945e-06 -2.893970e-09 -2.582835e-10
 6.582241e-06 -3.487221e-09 -3.253817e-10
 6.582739e-06 -4.150787e-09 -4.037419e-10
 6.584469e-06 -4.885128e-09 -4.944545e-10
 6.585474e-06 -5.687036e-09 -5.983353e-10
 6.587787e-06 -6.549006e-09 -7.162931e-10
 6.589453e-06 -7.458286e-09 -8.487709e-10
 6.592501e-06 -8.396857e-09 -9.968047e-10
 6.594973e-06 -9.339219e-09 -1.159624e-09
 6.764485e-06 -1.013303e-08 -1.558771e-09
 6.767938e-06 -1.094586e-08 -1.782850e-09
 6.772912e-06 -1.162539e-08 -2.001342e-09
 6.777379e-06 -1.212330e-08 -2.200292e-09
 6.783276e-06 -1.238371e-08 -2.347530e-09