# vtk DataFile Version 2.0
Generated by ludwig extract.c
ASCII
DATASET STRUCTURED_POINTS
DIMENSIONS 64 32 32
ORIGIN 0 0 0
SPACING 1 1 1
POINT_DATA 65536
VECTORS velocity_field float
 1.113781e-06 -2.898278e-10 -2.898278e-10
 1.114529e-06 -3.154453e-10 -3.154453e-10
 1.115699e-06 -3.396077e-10 -3.396077e-10
 1.116593e-06 -3.607935e-10 -3.607935e-10
 1.117892e-06 -3.778568e-10 -3.778568e-10
 1.118888e-06 -3.884446e-10 -3.884446e-10
 1.120251e-06 -3.909261e-10 -3.909261e-10
 1.121259e-06 -3.819424e-10 -3.819424e-10
 1.122565e-06 -3.593723e-10 -3.593723e-10
 1.123429e-06 -3.186188e-10 -3.186189e-10
 1.124482e-06 -2.565570e-10 -2.565569e-10
 1.124958e-06 -1.671381e-10 -1.671382e-10
 1.125466e-06 -4.901415e-11 -4.901419e-11
 1.125350e-06  1.572829e-11  1.572829e-11
 1.125468e-06  2.487118e-11  2.487119e-11
 1.125257e-06  2.307664e-12  2.307630e-12
 1.125460e-06 -2.063936e-11 -2.063935e-11
 1.125337e-06 -1.281586e-11 -1.281585e-11
 1.125453e-06  4.935089e-11  4.935088e-11
 1.124955e-06  1.625053e-10  1.625053e-10
 1.124494e-06  2.541835e-10  2.541835e-10
 1.123452e-06  3.174923e-10  3.174923e-10
 1.122595e-06  3.591102e-10  3.591102e-10
 1.121293e-06  3.823283e-10  3.823283e-10
 1.120288e-06  3.918515e-10  3.918515e-10
 1.118927e-06  3.897882e-10  3.897882e-10
 1.117931e-06  3.795393e-10  3.795393e-10
 1.116631e-06  3.627275e-10  3.627275e-10
 1.115736e-06  3.417328e-10  3.417329e-10
 1.114564e-06  3.177021e-10  3.177021e-10
 1.113814e-06  2.921734e-10  2.921734e-10
 1.112797e-06  2.658960e-10  2.658959e-10
 1.112206e-06  2.397915e-10  2.397915e-10
 1.111348e-06  2.143084e-10  2.143085e-10
 1.110912e-06  1.899463e-10  1.899463e-10
 1.110201e-06  1.669318e-10  1.669318e-10
 1.109904e-06  1.454845e-10  1.454845e-10
 1.109323e-06  1.256709e-10  1.256709e-10
 1.109147e-06  1.075288e-10  1.075288e-10
 1.108676e-06  9.101057e-11  9.101059e-11
 1.108599e-06  7.603792e-11  7.603791e-11
 1.108219e-06  6.248481e-11  6.248477e-11
 1.108224e-06  5.019938e-11  5.019939e-11
 1.107918e-06  3.900395e-11  3.900395e-11
 1.107992e-06  2.870146e-11  2.870152e-11
 1.107748e-06  1.908248e-11  1.908247e-11
 1.107880e-06  9.924145e-12  9.924124e-12
 1.107693e-06  1.001484e-12  1.001487e-12
 1.107879e-06 -7.919314e-12 -7.919276e-12
 1.107746e-06 -1.706527e-11 -1.706530e-11
 1.107988e-06 -2.666827e-11 -2.666832e-11
 1.107913e-06 -3.694484e-11 -3.694490e-11
 1.108217e-06 -4.811171e-11 -4.811169e-11
 1.108210e-06 -6.035998e-11 -6.035998e-11
 1.108589e-06 -7.387491e-11 -7.387494e-11
 1.108664e-06 -8.880301e-11 -8.880304e-11
 1.109133e-06 -1.052780e-10 -1.052781e-10
 1.109308e-06 -1.233742e-10 -1.233742e-10
 1.109886e-06 -1.431471e-10 -1.431471e-10
 1.110181e-06 -1.645561e-10 -1.645561e-10
 1.110889e-06 -1.875430e-10 -1.875431e-10
 1.111323e-06 -2.118879e-10 -2.118879e-10
 1.112179e-06 -2.373721e-10 -2.373720e-10
 1.112767e-06 -2.634990e-10 -2.634990e-10
 2.315905e-06 -8.817732e-10 -3.082825e-10
 2.317515e-06 -9.606444e-10 -3.354735e-10
 2.319617e-06 -1.033867e-09 -3.610484e-10
 2.321503e-06 -1.098667e-09 -3.842923e-10
 2.323847e-06 -1.148918e-09 -4.029576e-10
 2.325923e-06 -1.180742e-09 -4.159094e-10
 2.328381e-06 -1.185205e-09 -4.196171e-10
 2.330470e-06 -1.157422e-09 -4.123455e-10
 2.332812e-06 -1.085384e-09 -3.889458e-10
 2.334620e-06 -9.637003e-10 -3.463390e-10
 2.336479e-06 -7.781354e-10 -2.764847e-10
 2.337568e-06 -5.326437e-10 -1.737929e-10
 2.338412e-06 -1.859763e-10 -2.664712e-11
 2.338381e-06 -7.111568e-13  4.504261e-11
 2.338479e-06  4.293060e-11  4.464522e-11
 2.338249e-06  3.404579e-12  2.687458e-12
 2.338465e-06 -3.712813e-11 -3.984345e-11
 2.338358e-06  3.293494e-12 -4.193675e-11
 2.338389e-06  1.833295e-10  2.622650e-11
 2.337566e-06  5.164971e-10  1.665564e-10
 2.336504e-06  7.683994e-10  2.724508e-10
 2.334663e-06  9.561797e-10  3.441498e-10
 2.332868e-06  1.080046e-09  3.878333e-10
 2.330535e-06  1.153926e-09  4.120989e-10
 2.328451e-06  1.183181e-09  4.199736e-10
 2.325996e-06  1.179984e-09  4.167704e-10
 2.323921e-06  1.149130e-09  4.041684e-10
 2.321576e-06  1.099673e-09  3.857857e-10
 2.319687e-06  1.035441e-09  3.627252e-10
 2.317582e-06  9.626476e-10  3.372911e-10
 2.315968e-06  8.840489e-10  3.101778e-10
 2.314158e-06  8.035785e-10  2.827529e-10
 2.312850e-06  7.230444e-10  2.554350e-10
 2.311346e-06  6.447249e-10  2.289731e-10
 2.310335e-06  5.696647e-10  2.035950e-10
 2.309117e-06  4.990079e-10  1.796595e-10
 2.308377e-06  4.332122e-10  1.572548e-10
 2.307412e-06  3.726735e-10  1.364990e-10
 2.306906e-06  3.174139e-10  1.173753e-10
 2.306154e-06  2.673492e-10  9.985533e-11
 2.305842e-06  2.221926e-10  8.384279e-11
 2.305268e-06  1.815595e-10  6.921983e-11
 2.305115e-06  1.449518e-10  5.583080e-11
 2.304686e-06  1.118002e-10  4.350315e-11
 2.304665e-06  8.147451e-11  3.204134e-11
 2.304357e-06  5.330377e-11  2.124338e-11
 2.304450e-06  2.658804e-11  1.089056e-11
 2.304249e-06  6.097796e-13  7.673827e-13
 2.304447e-06 -2.535713e-11 -9.355239e-12
 2.304352e-06 -5.203905e-11 -1.969437e-11
 2.304658e-06 -8.015422e-11 -3.047795e-11
 2.304675e-06 -1.104036e-10 -4.191263e-11
 2.305102e-06 -1.434598e-10 -5.421336e-11
 2.305252e-06 -1.799554e-10 -6.756398e-11
 2.305823e-06 -2.204630e-10 -8.215023e-11
 2.306131e-06 -2.654838e-10 -9.811663e-11
 2.306879e-06 -3.154081e-10 -1.155949e-10
 2.307382e-06 -3.705272e-10 -1.346701e-10
 2.308342e-06 -4.309348e-10 -1.553861e-10
 2.309078e-06 -4.966141e-10 -1.777485e-10
 2.310291e-06 -5.671845e-10 -2.016567e-10
 2.311297e-06 -6.421940e-10 -2.270111e-10
 2.312796e-06 -7.205225e-10 -2.534738e-10
 2.314100e-06 -8.011291e-10 -2.808048e-10
 3.241060e-06 -1.906836e-09 -3.998298e-10
 3.243267e-06 -2.074703e-09 -4.360575e-10
 3.246013e-06 -2.230781e-09 -4.710879e-10
 3.248586e-06 -2.365280e-09 -5.026211e-10
 3.251648e-06 -2.469798e-09 -5.294363e-10
 3.254467e-06 -2.529961e-09 -5.476938e-10
 3.257674e-06 -2.534753e-09 -5.553771e-10
 3.260502e-06 -2.464802e-09 -5.465133e-10
 3.263544e-06 -2.307125e-09 -5.176075e-10
 3.265988e-06 -2.039050e-09 -4.586122e-10
 3.268381e-06 -1.655830e-09 -3.631687e-10
 3.269861e-06 -1.146607e-09 -2.187409e-10
 3.270955e-06 -5.149296e-10 -2.305110e-11
 3.271051e-06 -1.176707e-10  7.561374e-11
 3.271190e-06  1.472452e-11  6.866359e-11
 3.270963e-06  4.745839e-12  3.305772e-12
 3.271174e-06 -7.095831e-12 -6.286713e-11
 3.271025e-06  1.196287e-10 -7.258856e-11
 3.270931e-06  5.070664e-10  2.103079e-11
 3.269860e-06  1.121854e-09  2.085869e-10
 3.268412e-06  1.635869e-09  3.559953e-10
 3.266044e-06  2.023098e-09  4.539952e-10
 3.263617e-06  2.295177e-09  5.148467e-10
 3.260587e-06  2.456433e-09  5.449856e-10
 3.257766e-06  2.529494e-09  5.547818e-10
 3.254563e-06  2.527237e-09  5.477653e-10
 3.251746e-06  2.469202e-09  5.300240e-10
 3.248682e-06  2.366329e-09  5.035647e-10
 3.246106e-06  2.233119e-09  4.722927e-10
 3.243356e-06  2.077960e-09  4.374287e-10
 3.241143e-06  1.910740e-09  4.013077e-10
 3.238785e-06  1.737297e-09  3.646382e-10
 3.236978e-06  1.563823e-09  3.287118e-10
 3.235026e-06  1.393984e-09  2.939100e-10
 3.233617e-06  1.231254e-09  2.608705e-10
 3.232047e-06  1.077590e-09  2.297574e-10
 3.230999e-06  9.345690e-10  2.008147e-10
 3.229768e-06  8.028734e-10  1.740545e-10
 3.229032e-06  6.827991e-10  1.494888e-10
 3.228087e-06  5.741180e-10  1.270215e-10
 3.227612e-06  4.762894e-10  1.065288e-10
 3.226903e-06  3.884581e-10  8.783518e-11
 3.226642e-06  3.095474e-10  7.073409e-11
 3.226126e-06  2.382992e-10  5.499700e-11
 3.226041e-06  1.733235e-10  4.037109e-11
 3.225688e-06  1.131345e-10  2.659627e-11
 3.225754e-06  5.617892e-11  1.339234e-11
 3.225544e-06  8.632400e-13  4.823711e-13
 3.225751e-06 -5.442804e-11 -1.242640e-11
 3.225681e-06 -1.113089e-10 -2.561334e-11
 3.226031e-06 -1.713764e-10 -3.936907e-11
 3.226112e-06 -2.361844e-10 -5.396068e-11
 3.226624e-06 -3.072246e-10 -6.966234e-11
 3.226881e-06 -3.858901e-10 -8.671436e-11
 3.227586e-06 -4.734478e-10 -1.053593e-10
 3.228056e-06 -5.709817e-10 -1.257921e-10
 3.228997e-06 -6.793590e-10 -1.482028e-10
 3.229727e-06 -7.991332e-10 -1.727050e-10
 3.230953e-06 -9.305486e-10 -1.994091e-10
 3.231995e-06 -1.073330e-09 -2.282953e-10
 3.233558e-06 -1.226816e-09 -2.593654e-10
 3.234961e-06 -1.389462e-09 -2.923719e-10
 3.236906e-06 -1.559334e-09 -3.271637e-10
 3.238708e-06 -1.733007e-09 -3.631065e-10
 3.977384e-06 -3.140473e-09 -5.033036e-10
 3.980013e-06 -3.413248e-09 -5.510782e-10
 3.983216e-06 -3.663236e-09 -5.968404e-10
 3.986275e-06 -3.878269e-09 -6.393886e-10
 3.989852e-06 -4.039292e-09 -6.747508e-10
 3.993200e-06 -4.129896e-09 -7.008718e-10
 3.996946e-06 -4.123822e-09 -7.113336e-10
 4.000301e-06 -4.000870e-09 -7.024507e-10
 4.003845e-06 -3.728410e-09 -6.631668e-10
 4.006737e-06 -3.290572e-09 -5.852621e-10
 4.009497e-06 -2.668757e-09 -4.548626e-10
 4.011253e-06 -1.891880e-09 -2.694119e-10
 4.012532e-06 -9.941360e-10 -3.052013e-11
 4.012737e-06 -3.727122e-10  9.375689e-11
 4.012923e-06 -8.796528e-11  8.598854e-11
 4.012711e-06  5.242390e-12  3.902038e-12
 4.012905e-06  9.570561e-11 -7.956648e-11
 4.012709e-06  3.725089e-10 -9.120784e-11
 4.012509e-06  9.823888e-10  2.713626e-11
 4.011254e-06  1.863908e-09  2.576011e-10
 4.009532e-06  2.641853e-09  4.449704e-10
 4.006800e-06  3.266693e-09  5.777722e-10
 4.003930e-06  3.710184e-09  6.583492e-10
 4.000401e-06  3.988175e-09  6.995930e-10
 3.997054e-06  4.115898e-09  7.097367e-10
 3.993314e-06  4.126078e-09  7.002423e-10
 3.989967e-06  4.038811e-09  6.747806e-10
 3.986388e-06  3.880520e-09  6.399258e-10
 3.983325e-06  3.667563e-09  5.976987e-10
 3.980117e-06  3.419147e-09  5.521709e-10
 3.977483e-06  3.147443e-09  5.045183e-10
 3.974738e-06  2.865296e-09  4.570557e-10
 3.972583e-06  2.580935e-09  4.104251e-10
 3.970319e-06  2.302186e-09  3.658104e-10
 3.968633e-06  2.033982e-09  3.235087e-10
 3.966820e-06  1.780464e-09  2.840186e-10
 3.965561e-06  1.544000e-09  2.474058e-10
 3.964148e-06  1.326145e-09  2.137754e-10
 3.963257e-06  1.127370e-09  1.830348e-10
 3.962180e-06  9.474785e-10  1.550712e-10
 3.961595e-06  7.855940e-10  1.296786e-10
 3.960796e-06  6.403548e-10  1.066214e-10
 3.960463e-06  5.099905e-10  8.561969e-11
 3.959890e-06  3.924274e-10  6.637597e-11
 3.959763e-06  2.853587e-10  4.856282e-11
 3.959380e-06  1.863077e-10  3.184560e-11
 3.959429e-06  9.267858e-11  1.586405e-11
 3.959213e-06  1.799665e-12  2.613708e-13
 3.959425e-06 -8.903807e-11 -1.533971e-11
 3.959372e-06 -1.825442e-10 -3.129964e-11
 3.959751e-06 -2.813932e-10 -4.799236e-11
 3.959874e-06 -3.881853e-10 -6.576177e-11
 3.960442e-06 -5.054041e-10 -8.495991e-11
 3.960771e-06 -6.353648e-10 -1.058983e-10
 3.961565e-06 -7.801537e-10 -1.288924e-10
 3.962144e-06 -9.415555e-10 -1.542068e-10
 3.963215e-06 -1.120952e-09 -1.820965e-10
 3.964099e-06 -1.319241e-09 -2.127523e-10
 3.965507e-06 -1.536649e-09 -2.463087e-10
 3.966759e-06 -1.772734e-09 -2.828429e-10
 3.968564e-06 -2.025986e-09 -3.222755e-10
 3.970242e-06 -2.294073e-09 -3.645256e-10
 3.972499e-06 -2.572920e-09 -4.091270e-10
 3.974647e-06 -2.857631e-09 -4.557660e-10
 4.578360e-06 -4.453124e-09 -6.042302e-10
 4.581291e-06 -4.833555e-09 -6.635247e-10
 4.584824e-06 -5.181742e-09 -7.217112e-10
 4.588243e-06 -5.475593e-09 -7.749013e-10
 4.592200e-06 -5.694537e-09 -8.212916e-10
 4.595948e-06 -5.807237e-09 -8.543749e-10
 4.600098e-06 -5.787279e-09 -8.708454e-10
 4.603857e-06 -5.593775e-09 -8.590856e-10
 4.607780e-06 -5.199940e-09 -8.104353e-10
 4.611007e-06 -4.572770e-09 -7.073597e-10
 4.614038e-06 -3.723679e-09 -5.429714e-10
 4.615994e-06 -2.698347e-09 -3.171952e-10
 4.617411e-06 -1.585391e-09 -4.581915e-11
 4.617694e-06 -7.438266e-10  1.006990e-10
 4.617923e-06 -2.646189e-10  9.541446e-11
 4.617720e-06  4.245885e-12  4.162521e-12
 4.617905e-06  2.699497e-10 -8.882656e-11
 4.617668e-06  7.409053e-10 -9.862593e-11
 4.617389e-06  1.571603e-09  4.164363e-11
 4.615997e-06  2.670784e-09  3.047494e-10
 4.614075e-06  3.694100e-09  5.312438e-10
 4.611075e-06  4.544060e-09  6.973426e-10
 4.607872e-06  5.176579e-09  8.032981e-10
 4.603967e-06  5.577482e-09  8.547588e-10
 4.600218e-06  5.777504e-09  8.684007e-10
 4.596074e-06  5.802985e-09  8.531643e-10
 4.592327e-06  5.694951e-09  8.209897e-10
 4.588368e-06  5.479740e-09  7.752140e-10
 4.584945e-06  5.188855e-09  7.224639e-10
 4.581407e-06  4.842857e-09  6.645482e-10
 4.578469e-06  4.464000e-09  6.054221e-10
 4.575453e-06  4.067075e-09  5.461043e-10
 4.573054e-06  3.666549e-09  4.887125e-10
 4.570576e-06  3.272049e-09  4.337521e-10
 4.568703e-06  2.892028e-09  3.821866e-10
 4.566729e-06  2.531887e-09  3.341783e-10
 4.565331e-06  2.195690e-09  2.900188e-10
 4.563799e-06  1.885590e-09  2.496433e-10
 4.562810e-06  1.602569e-09  2.129795e-10
 4.561651e-06  1.346377e-09  1.798036e-10
 4.560999e-06  1.115877e-09  1.498486e-10
 4.560145e-06  9.091680e-10  1.227972e-10
 4.559769e-06  7.237678e-10  9.829629e-11
 4.559163e-06  5.567372e-10  7.597335e-11
 4.559011e-06  4.047898e-10  5.542344e-11
 4.558611e-06  2.643805e-10  3.623206e-11
 4.558650e-06  1.317809e-10  1.795422e-11
 4.558431e-06  3.144870e-12  1.463413e-13
 4.558646e-06 -1.254326e-10 -1.765898e-11
 4.558603e-06 -2.578568e-10 -3.591103e-11
 4.558998e-06 -3.979787e-10 -5.507176e-11
 4.559146e-06 -5.495324e-10 -7.556867e-11
 4.559746e-06 -7.160735e-10 -9.783484e-11
 4.560118e-06 -9.009009e-10 -1.222582e-10
 4.560966e-06 -1.106973e-09 -1.492306e-10
 4.561611e-06 -1.336791e-09 -1.790892e-10
 4.562764e-06 -1.592286e-09 -2.121710e-10
 4.563747e-06 -1.874630e-09 -2.487293e-10
 4.565271e-06 -2.184108e-09 -2.890076e-10
 4.566661e-06 -2.519791e-09 -3.330689e-10
 4.568627e-06 -2.879576e-09 -3.809972e-10
 4.570491e-06 -3.259470e-09 -4.324987e-10
 4.572961e-06 -3.654130e-09 -4.874296e-10
 4.575352e-06 -4.055206e-09 -5.448368e-10
 5.077428e-06 -5.768445e-09 -6.980292e-10
 5.080576e-06 -6.257172e-09 -7.703386e-10
 5.084356e-06 -6.699583e-09 -8.404995e-10
 5.088045e-06 -7.072421e-09 -9.070550e-10
 5.092301e-06 -7.341197e-09 -9.638503e-10
 5.096362e-06 -7.474769e-09 -1.008179e-09
 5.100842e-06 -7.426089e-09 -1.028636e-09
 5.104924e-06 -7.159432e-09 -1.016666e-09
 5.109153e-06 -6.628411e-09 -9.529415e-10
 5.112645e-06 -5.824268e-09 -8.250315e-10
 5.115885e-06 -4.761509e-09 -6.235691e-10
 5.117992e-06 -3.535762e-09 -3.631868e-10
 5.119510e-06 -2.249446e-09 -6.910461e-11
 5.119864e-06 -1.208723e-09  9.365290e-11
 5.120123e-06 -4.975893e-10  9.659736e-11
 5.119933e-06  1.902319e-12  3.914601e-12
 5.120107e-06  4.988371e-10 -9.040902e-11
 5.119839e-06  1.203012e-09 -9.199525e-11
 5.119490e-06  2.234980e-09  6.465103e-11
 5.117996e-06  3.510854e-09  3.508514e-10
 5.115923e-06  4.732802e-09  6.109331e-10
 5.112715e-06  5.794458e-09  8.131454e-10
 5.109251e-06  6.602441e-09  9.436100e-10
 5.105042e-06  7.140576e-09  1.010554e-09
 5.100971e-06  7.415129e-09  1.025239e-09
 5.096498e-06  7.470776e-09  1.006527e-09
 5.092438e-06  7.343003e-09  9.633116e-10
 5.088180e-06  7.079003e-09  9.073285e-10
 5.084486e-06  6.709893e-09  8.412818e-10
 5.080700e-06  6.270333e-09  7.714780e-10
 5.077544e-06  5.783609e-09  6.993479e-10
 5.074335e-06  5.273361e-09  6.284941e-10
 5.071771e-06  4.755700e-09  5.596837e-10
 5.069152e-06  4.245420e-09  4.946802e-10
 5.067160e-06  3.752495e-09  4.337850e-10
 5.065087e-06  3.285047e-09  3.776454e-10
 5.063608e-06  2.848141e-09  3.262463e-10
 5.062010e-06  2.445063e-09  2.796232e-10
 5.060968e-06  2.077090e-09  2.375313e-10
 5.059767e-06  1.744070e-09  1.996919e-10
 5.059083e-06  1.444576e-09  1.657373e-10
 5.058205e-06  1.176204e-09  1.352757e-10
 5.057810e-06  9.357557e-10  1.078751e-10
 5.057192e-06  7.194190e-10  8.308731e-11
 5.057031e-06  5.229048e-10  6.042763e-11
 5.056626e-06  3.415685e-10  3.939959e-11
 5.056661e-06  1.705125e-10  1.946983e-11
 5.056441e-06  4.675427e-12  1.044963e-13
 5.056657e-06 -1.610851e-10 -1.925745e-11
 5.056617e-06 -3.319126e-10 -3.915713e-11
 5.057018e-06 -5.128738e-10 -6.014867e-11
 5.057173e-06 -7.088749e-10 -8.274564e-11
 5.057787e-06 -9.245737e-10 -1.074658e-10
 5.058176e-06 -1.164277e-09 -1.347742e-10
 5.059048e-06 -1.431821e-09 -1.651410e-10
 5.059726e-06 -1.730432e-09 -1.989797e-10
 5.060919e-06 -2.062553e-09 -2.367054e-10
 5.061955e-06 -2.429651e-09 -2.786676e-10
 5.063544e-06 -2.831936e-09 -3.251721e-10
 5.065015e-06 -3.268187e-09 -3.764462e-10
 5.067079e-06 -3.735197e-09 -4.324876e-10
 5.069062e-06 -4.227971e-09 -4.932937e-10
 5.071672e-06 -4.738496e-09 -5.582628e-10
 5.074228e-06 -5.256871e-09 -6.270735e-10
 5.496200e-06 -7.025568e-09 -7.921632e-10
 5.499509e-06 -7.615922e-09 -8.778307e-10
 5.503474e-06 -8.150025e-09 -9.635569e-10
 5.507382e-06 -8.592179e-09 -1.043721e-09
 5.511877e-06 -8.908110e-09 -1.116448e-09
 5.516207e-06 -9.046964e-09 -1.170820e-09
 5.520962e-06 -8.966283e-09 -1.199142e-09
 5.525326e-06 -8.609488e-09 -1.181068e-09
 5.529811e-06 -7.950991e-09 -1.101483e-09
 5.533522e-06 -6.977245e-09 -9.419135e-10
 5.536928e-06 -5.748280e-09 -7.046849e-10
 5.539148e-06 -4.365302e-09 -4.144610e-10
 5.540756e-06 -2.958896e-09 -1.085851e-10
 5.541176e-06 -1.731719e-09  6.796698e-11
 5.541482e-06 -7.745216e-10  8.576820e-11
 5.541303e-06 -9.410563e-13  3.325083e-12
 5.541468e-06  7.708103e-10 -8.063305e-11
 5.541154e-06  1.723321e-09 -6.679208e-11
 5.540739e-06  2.944605e-09  1.042020e-10
 5.539154e-06  4.343812e-09  4.026303e-10
 5.536967e-06  5.722931e-09  6.919076e-10
 5.533593e-06  6.949673e-09  9.289992e-10
 5.529912e-06  7.925493e-09  1.090380e-09
 5.525448e-06  8.589994e-09  1.173117e-09
 5.521099e-06  8.954873e-09  1.194435e-09
 5.516351e-06  9.043675e-09  1.168647e-09
 5.512022e-06  8.911728e-09  1.115805e-09
 5.507525e-06  8.601421e-09  1.044047e-09
 5.503612e-06  8.163751e-09  9.645428e-10
 5.499639e-06  7.633020e-09  8.792112e-10
 5.496322e-06  7.045107e-09  7.937795e-10
 5.492982e-06  6.424551e-09  7.092335e-10
 5.490310e-06  5.794834e-09  6.286418e-10
 5.487606e-06  5.172156e-09  5.524705e-10
 5.485549e-06  4.570504e-09  4.820102e-10
 5.483427e-06  3.999259e-09  4.173287e-10
 5.481913e-06  3.465378e-09  3.586841e-10
 5.480292e-06  2.972772e-09  3.058135e-10
 5.479235e-06  2.523259e-09  2.584356e-10
 5.478027e-06  2.116703e-09  2.161328e-10
 5.477341e-06  1.751461e-09  1.784557e-10
 5.476465e-06  1.424629e-09  1.449218e-10
 5.476075e-06  1.132308e-09  1.150166e-10
 5.475462e-06  8.698094e-10  8.820702e-11
 5.475306e-06  6.318397e-10  6.391942e-11
 5.474904e-06  4.126550e-10  4.156353e-11
 5.474943e-06  2.061930e-10  2.050798e-11
 5.474724e-06  6.189289e-12  1.196716e-13
 5.474938e-06 -1.937201e-10 -2.026418e-11
 5.474895e-06 -3.999004e-10 -4.128490e-11
 5.475292e-06 -6.186231e-10 -6.359747e-11
 5.475443e-06 -8.559611e-10 -8.781244e-11
 5.476051e-06 -1.117675e-09 -1.145422e-10
 5.476436e-06 -1.409080e-09 -1.443399e-10
 5.477306e-06 -1.734894e-09 -1.777615e-10
 5.477985e-06 -2.099054e-09 -2.153027e-10
 5.479186e-06 -2.504507e-09 -2.574683e-10
 5.480235e-06 -2.952952e-09 -3.046925e-10
 5.481848e-06 -3.444587e-09 -3.574157e-10
 5.483353e-06 -3.977676e-09 -4.159104e-10
 5.485465e-06 -4.548385e-09 -4.804623e-10
 5.487513e-06 -5.149867e-09 -5.508167e-10
 5.490207e-06 -5.772831e-09 -6.269262e-10
 5.492869e-06 -6.403436e-09 -7.075248e-10
 5.849149e-06 -8.160229e-09 -8.936936e-10
 5.852573e-06 -8.845139e-09 -9.972320e-10
 5.856688e-06 -9.457740e-09 -1.099876e-09
 5.860773e-06 -9.962254e-09 -1.200487e-09
 5.865482e-06 -1.030645e-08 -1.288947e-09
 5.870044e-06 -1.044340e-08 -1.358588e-09
 5.875054e-06 -1.031011e-08 -1.388969e-09
 5.879663e-06 -9.868357e-09 -1.363730e-09
 5.884376e-06 -9.083349e-09 -1.258875e-09
 5.888269e-06 -7.983559e-09 -1.065532e-09
 5.891809e-06 -6.632088e-09 -7.944087e-10
 5.894130e-06 -5.160245e-09 -4.851265e-10
 5.895822e-06 -3.657512e-09 -1.719782e-10
 5.896329e-06 -2.277292e-09  1.679040e-11
 5.896694e-06 -1.073427e-09  5.748727e-11
 5.896543e-06 -3.674300e-12  2.456080e-12
 5.896682e-06  1.065151e-09 -5.377853e-11
 5.896312e-06  2.266558e-09 -1.638893e-11
 5.895810e-06  3.643773e-09  1.676798e-10
 5.894139e-06  5.142524e-09  4.740001e-10
 5.891849e-06  6.611431e-09  7.820540e-10
 5.888341e-06  7.960711e-09  1.052397e-09
 5.884478e-06  9.061279e-09  1.246729e-09
 5.879789e-06  9.850694e-09  1.354190e-09
 5.875196e-06  1.029965e-08  1.382789e-09
 5.870195e-06  1.044124e-08  1.355522e-09
 5.865634e-06  1.031206e-08  1.288139e-09
 5.860923e-06  9.974275e-09  1.200986e-09
 5.856832e-06  9.474819e-09  1.101150e-09
 5.852708e-06  8.866082e-09  9.990136e-10
 5.849275e-06  8.183916e-09  8.957196e-10
 5.845845e-06  7.463584e-09  7.962134e-10
 5.843111e-06  6.729507e-09  7.010355e-10
 5.840366e-06  6.003696e-09  6.125740e-10
 5.838287e-06  5.301419e-09  5.310043e-10
 5.836158e-06  4.634900e-09  4.570271e-10
 5.834648e-06  4.011954e-09  3.903488e-10
 5.833040e-06  3.437561e-09  3.307327e-10
 5.832002e-06  2.913891e-09  2.776871e-10
 5.830818e-06  2.440942e-09  2.307079e-10
 5.830157e-06  2.016835e-09  1.892322e-10
 5.829306e-06  1.638175e-09  1.526817e-10
 5.828939e-06  1.300347e-09  1.204396e-10
 5.828347e-06  9.977838e-10  9.186664e-11
 5.828209e-06  7.241980e-10  6.627583e-11
 5.827820e-06  4.727771e-10  4.296152e-11
 5.827867e-06  2.363518e-10  2.117603e-11
 5.827650e-06  7.533273e-12  1.728652e-13
 5.827862e-06 -2.211734e-10 -2.082437e-11
 5.827812e-06 -4.572652e-10 -4.256926e-11
 5.828195e-06 -7.081399e-10 -6.583213e-11
 5.828329e-06 -9.809797e-10 -9.133864e-11
 5.828916e-06 -1.282617e-09 -1.198179e-10
 5.829277e-06 -1.619364e-09 -1.519350e-10
 5.830121e-06 -1.996824e-09 -1.883537e-10
 5.830775e-06 -2.419654e-09 -2.296690e-10
 5.831953e-06 -2.891302e-09 -2.764859e-10
 5.832983e-06 -3.413710e-09 -3.293462e-10
 5.834582e-06 -3.986959e-09 -3.887855e-10
 5.836083e-06 -4.608960e-09 -4.552757e-10
 5.838202e-06 -5.274844e-09 -5.290958e-10
 5.840271e-06 -5.976892e-09 -6.105197e-10
 5.843005e-06 -6.703027e-09 -6.989088e-10
 5.845729e-06 -7.438083e-09 -7.940646e-10
 6.146296e-06 -9.103434e-09 -1.013293e-09
 6.149810e-06 -9.864095e-09 -1.137315e-09
 6.154044e-06 -1.054120e-08 -1.264944e-09
 6.158292e-06 -1.108348e-08 -1.386888e-09
 6.163190e-06 -1.144194e-08 -1.497606e-09
 6.167979e-06 -1.155091e-08 -1.576889e-09
 6.173220e-06 -1.136386e-08 -1.608521e-09
 6.178060e-06 -1.083169e-08 -1.564896e-09
 6.182969e-06 -9.958112e-09 -1.430239e-09
 6.187018e-06 -8.772522e-09 -1.202109e-09
 6.190674e-06 -7.373840e-09 -9.077967e-10
 6.193091e-06 -5.851550e-09 -5.868254e-10
 6.194888e-06 -4.294907e-09 -2.673923e-10
 6.195501e-06 -2.784020e-09 -6.425985e-11
 6.195957e-06 -1.363946e-09  8.777166e-12
 6.195836e-06 -5.748558e-12  1.475053e-12
 6.195948e-06  1.352251e-09 -6.762008e-12
 6.195489e-06  2.771818e-09  6.369685e-11
 6.194882e-06  4.282041e-09  2.628933e-10
 6.193104e-06  5.837259e-09  5.762464e-10
 6.190716e-06  7.358395e-09  8.961936e-10
 6.187091e-06  8.755710e-09  1.189406e-09
 6.183071e-06  9.941687e-09  1.417855e-09
 6.178187e-06  1.081830e-08  1.554405e-09
 6.173365e-06  1.135620e-08  1.601015e-09
 6.168134e-06  1.155076e-08  1.572729e-09
 6.163349e-06  1.144963e-08  1.496285e-09
 6.158447e-06  1.109816e-08  1.387529e-09
 6.154193e-06  1.056141e-08  1.266635e-09
 6.149950e-06  9.888496e-09  1.139588e-09
 6.146426e-06  9.130839e-09  1.015886e-09
 6.142941e-06  8.324198e-09  8.960228e-10
 6.140177e-06  7.501678e-09  7.840377e-10
 6.137427e-06  6.686459e-09  6.801077e-10
 6.135360e-06  5.897998e-09  5.857347e-10
 6.133257e-06  5.149472e-09  5.005469e-10
 6.131785e-06  4.450459e-09  4.244506e-10
 6.130221e-06  3.806644e-09  3.568686e-10
 6.129233e-06  3.220766e-09  2.972409e-10
 6.128099e-06  2.692879e-09  2.449169e-10
 6.127488e-06  2.220848e-09  1.992210e-10
 6.126683e-06  1.800729e-09  1.594442e-10
 6.126358e-06  1.427156e-09  1.248299e-10
 6.125800e-06  1.093669e-09  9.458685e-11
 6.125690e-06  7.930209e-10  6.787388e-11
 6.125321e-06  5.174183e-10  4.383696e-11
 6.125380e-06  2.587209e-10  2.158841e-11
 6.125168e-06  8.586454e-12  2.507890e-13
 6.125376e-06 -2.414201e-10 -2.107905e-11
 6.125313e-06 -4.997367e-10 -4.328035e-11
 6.125677e-06 -7.747156e-10 -6.725544e-11
 6.125783e-06 -1.074512e-09 -9.386941e-11
 6.126335e-06 -1.406943e-09 -1.240015e-10
 6.126655e-06 -1.779284e-09 -1.584702e-10
 6.127453e-06 -2.198032e-09 -1.980907e-10
 6.128058e-06 -2.668603e-09 -2.435986e-10
 6.129184e-06 -3.195000e-09 -2.957272e-10
 6.130165e-06 -3.779431e-09 -3.551352e-10
 6.131719e-06 -4.421924e-09 -4.224979e-10
 6.133182e-06 -5.119844e-09 -4.983684e-10
 6.135275e-06 -5.867608e-09 -5.833491e-10
 6.137331e-06 -6.655775e-09 -6.775468e-10
 6.140070e-06 -7.471288e-09 -7.813573e-10
 6.142823e-06 -8.294861e-09 -8.933241e-10
 6.394811e-06 -9.771255e-09 -1.157854e-09
 6.398389e-06 -1.058439e-08 -1.311311e-09
 6.402737e-06 -1.129373e-08 -1.465804e-09
 6.407130e-06 -1.185055e-08 -1.616571e-09
 6.412224e-06 -1.219027e-08 -1.743931e-09
 6.417224e-06 -1.226206e-08 -1.832460e-09
 6.422694e-06 -1.200910e-08 -1.852663e-09
 6.427739e-06 -1.141728e-08 -1.784698e-09
 6.432824e-06 -1.048961e-08 -1.616934e-09
 6.437004e-06 -9.292669e-09 -1.364203e-09
 6.440770e-06 -7.890589e-09 -1.056060e-09
 6.443302e-06 -6.375652e-09 -7.267526e-10
 6.445228e-06 -4.787818e-09 -3.992072e-10
 6.445981e-06 -3.194406e-09 -1.748208e-10
 6.446546e-06 -1.598468e-09 -5.705903e-11
 6.446473e-06 -6.845850e-12  4.833425e-13
 6.446540e-06  1.585099e-09  5.732868e-11
 6.445974e-06  3.181869e-09  1.730946e-10
 6.445228e-06  4.776356e-09  3.942728e-10
 6.443321e-06  6.364956e-09  7.163938e-10
 6.440817e-06  7.880230e-09  1.045166e-09
 6.437078e-06  9.282304e-09  1.352337e-09
 6.432926e-06  1.047993e-08  1.605012e-09
 6.427867e-06  1.140991e-08  1.774040e-09
 6.422841e-06  1.200608e-08  1.844404e-09
 6.417383e-06  1.226517e-08  1.827300e-09
 6.412387e-06  1.220044e-08  1.741894e-09
 6.407291e-06  1.186760e-08  1.617044e-09
 6.402890e-06  1.131661e-08  1.467899e-09
 6.398533e-06  1.061167e-08  1.314211e-09
 6.394943e-06  9.801664e-09  1.161111e-09
 6.391423e-06  8.934884e-09  1.017285e-09
 6.388656e-06  8.045578e-09  8.829463e-10
 6.385926e-06  7.163358e-09  7.608121e-10
 6.383898e-06  6.308770e-09  6.501847e-10
 6.381851e-06  5.497874e-09  5.512865e-10
 6.380445e-06  4.741406e-09  4.634295e-10
 6.378955e-06  4.046207e-09  3.860505e-10
 6.378043e-06  3.415394e-09  3.184025e-10
 6.376984e-06  2.849018e-09  2.597121e-10
 6.376444e-06  2.344539e-09  2.091346e-10
 6.375704e-06  1.897355e-09  1.657673e-10
 6.375434e-06  1.501278e-09  1.286347e-10
 6.374923e-06  1.148974e-09  9.672330e-11
 6.374848e-06  8.323361e-10  6.898238e-11
 6.374506e-06  5.427731e-10  4.436936e-11
 6.374580e-06  2.714189e-10  2.183049e-11
 6.374373e-06  9.267791e-12  3.414422e-13
 6.374576e-06 -2.527428e-10 -2.113762e-11
 6.374498e-06 -5.236782e-10 -4.362150e-11
 6.374836e-06 -8.125535e-10 -6.816021e-11
 6.374906e-06 -1.128251e-09 -9.578400e-11
 6.375413e-06 -1.479387e-09 -1.275621e-10
 6.375677e-06 -1.874100e-09 -1.645223e-10
 6.376411e-06 -2.319765e-09 -2.077040e-10
 6.376945e-06 -2.822622e-09 -2.580580e-10
 6.377996e-06 -3.387338e-09 -3.165149e-10
 6.378900e-06 -4.016530e-09 -3.838963e-10
 6.380381e-06 -4.710244e-09 -4.610109e-10
 6.381777e-06 -5.465463e-09 -5.485836e-10
 6.383814e-06 -6.275473e-09 -6.472304e-10
 6.385830e-06 -7.129661e-09 -7.576179e-10
 6.388549e-06 -8.012129e-09 -8.796094e-10
 6.391303e-06 -8.902467e-09 -1.013883e-09
 6.599942e-06 -1.007328e-08 -1.337963e-09
 6.603585e-06 -1.089773e-08 -1.522992e-09
 6.608034e-06 -1.160539e-08 -1.712102e-09
 6.612588e-06 -1.213614e-08 -1.885779e-09
 6.617868e-06 -1.243879e-08 -2.029671e-09
 6.623088e-06 -1.245464e-08 -2.113350e-09
 6.628765e-06 -1.215824e-08 -2.115585e-09
 6.633999e-06 -1.153411e-08 -2.018318e-09
 6.639227e-06 -1.062040e-08 -1.827376e-09
 6.643532e-06 -9.455126e-09 -1.560188e-09
 6.647421e-06 -8.112003e-09 -1.242651e-09
 6.650094e-06 -6.635524e-09 -9.063528e-10
 6.652182e-06 -5.071935e-09 -5.639734e-10
 6.653102e-06 -3.433628e-09 -3.072290e-10
 6.653797e-06 -1.740469e-09 -1.320067e-10
 6.653774e-06 -6.863475e-12 -4.375077e-13
 6.653795e-06  1.727308e-09  1.305898e-10
 6.653101e-06  3.422109e-09  3.042676e-10
 6.652190e-06  5.062672e-09  5.583954e-10
 6.650120e-06  6.628400e-09  8.959691e-10
 6.647473e-06  8.106638e-09  1.232235e-09
 6.643610e-06  9.450891e-09  1.549174e-09
 6.639331e-06  1.061757e-08  1.816361e-09
 6.634127e-06  1.153344e-08  2.008204e-09
 6.628912e-06  1.216098e-08  2.107324e-09
 6.623248e-06  1.246213e-08  2.107724e-09
 6.618034e-06  1.245203e-08  2.027004e-09
 6.612752e-06  1.215545e-08  1.885911e-09
 6.608191e-06  1.163024e-08  1.714343e-09
 6.603731e-06  1.092705e-08  1.526525e-09
 6.600075e-06  1.010574e-08  1.342024e-09
 6.596535e-06  9.212662e-09  1.165846e-09
 6.593778e-06  8.290729e-09  1.005221e-09
 6.591087e-06  7.370924e-09  8.590559e-10
 6.589123e-06  6.478772e-09  7.281583e-10
 6.587158e-06  5.632336e-09  6.115788e-10
 6.585845e-06  4.844470e-09  5.088653e-10
 6.584456e-06  4.122813e-09  4.191991e-10
 6.583644e-06  3.470749e-09  3.417286e-10
 6.582681e-06  2.888022e-09  2.754570e-10
 6.582229e-06  2.371467e-09  2.192641e-10
 6.581567e-06  1.915673e-09  1.719173e-10
 6.581364e-06  1.513621e-09  1.321067e-10
 6.580907e-06  1.157221e-09  9.850621e-11
 6.580874e-06  8.377394e-10  6.979262e-11
 6.580561e-06  5.461084e-10  4.469402e-11
 6.580653e-06  2.731196e-10  2.196850e-11
 6.580452e-06  9.527025e-12  4.353289e-13
 6.580649e-06 -2.539180e-10 -2.108532e-11
 6.580554e-06 -5.264657e-10 -4.374746e-11
 6.580863e-06 -8.173698e-10 -6.875776e-11
 6.580892e-06 -1.135852e-09 -9.733281e-11
 6.581345e-06 -1.491005e-09 -1.307718e-10
 6.581543e-06 -1.891593e-09 -1.703752e-10
 6.582199e-06 -2.345751e-09 -2.174970e-10
 6.582644e-06 -2.860555e-09 -2.734240e-10
 6.583599e-06 -3.441482e-09 -3.394126e-10
 6.584403e-06 -4.091779e-09 -4.165638e-10
 6.585784e-06 -4.811802e-09 -5.059010e-10
 6.587086e-06 -5.598281e-09 -6.082724e-10
 6.589040e-06 -6.443699e-09 -7.245241e-10
 6.590993e-06 -7.335348e-09 -8.551358e-10
 6.593670e-06 -8.255304e-09 -1.001087e-09
 6.596415e-06 -9.178222e-09 -1.161647e-09
 6.765611e-06 -9.907251e-09 -1.556304e-09
 6.769323e-06 -1.069910e-08 -1.777493e-09
 6.773899e-06 -1.135770e-08 -1.993026e-09
 6.778610e-06 -1.183515e-08 -2.189178e-09
 6.784092e-06 -1.207628e-08 -2.334287e-09