# vtk DataFile Version 2.0
Generated by ludwig extract.c
ASCII
DATASET STRUCTURED_POINTS
DIMENSIONS 64 32 32
ORIGIN 0 0 0
SPACING 1 1 1
POINT_DATA 65536
VECTORS velocity_field float
 1.113782e-06 -2.898297e-10 -2.898298e-10
 1.114530e-06 -3.154475e-10 -3.154475e-10
 1.115700e-06 -3.396101e-10 -3.396101e-10
 1.116594e-06 -3.607959e-10 -3.607959e-10
 1.117893e-06 -3.778592e-10 -3.778592e-10
 1.118889e-06 -3.884471e-10 -3.884471e-10
 1.120252e-06 -3.909286e-10 -3.909286e-10
 1.121260e-06 -3.819447e-10 -3.819447e-10
 1.122566e-06 -3.593744e-10 -3.593744e-10
 1.123430e-06 -3.186205e-10 -3.186205e-10
 1.124482e-06 -2.565581e-10 -2.565581e-10
 1.124959e-06 -1.671387e-10 -1.671387e-10
 1.125467e-06 -4.901418e-11 -4.901412e-11
 1.125351e-06  1.572856e-11  1.572852e-11
 1.125469e-06  2.487135e-11  2.487132e-11
 1.125259e-06  2.307682e-12  2.307671e-12
 1.125461e-06 -2.063952e-11 -2.063952e-11
 1.125338e-06 -1.281605e-11 -1.281604e-11
 1.125453e-06  4.935099e-11  4.935096e-11
 1.124957e-06  1.625059e-10  1.625059e-10
 1.124495e-06  2.541847e-10  2.541846e-10
 1.123453e-06  3.174940e-10  3.174940e-10
 1.122595e-06  3.591122e-10  3.591122e-10
 1.121294e-06  3.823306e-10  3.823306e-10
 1.120289e-06  3.918539e-10  3.918539e-10
 1.118928e-06  3.897907e-10  3.897907e-10
 1.117931e-06  3.795418e-10  3.795418e-10
 1.116632e-06  3.627298e-10  3.627298e-10
 1.115737e-06  3.417350e-10  3.417350e-10
 1.114565e-06  3.177042e-10  3.177043e-10
 1.113815e-06  2.921754e-10  2.921754e-10
 1.112798e-06  2.658977e-10  2.658977e-10
 1.112207e-06  2.397932e-10  2.397932e-10
 1.111349e-06  2.143099e-10  2.143098e-10
 1.110912e-06  1.899475e-10  1.899475e-10
 1.110202e-06  1.669329e-10  1.669329e-10
 1.109905e-06  1.454854e-10  1.454854e-10
 1.109325e-06  1.256716e-10  1.256716e-10
 1.109147e-06  1.075294e-10  1.075294e-10
 1.108677e-06  9.101114e-11  9.101109e-11
 1.108599e-06  7.603837e-11  7.603833e-11
 1.108220e-06  6.248507e-11  6.248506e-11
 1.108225e-06  5.019961e-11  5.019959e-11
 1.107920e-06  3.900420e-11  3.900419e-11
 1.107992e-06  2.870162e-11  2.870161e-11
 1.107750e-06  1.908255e-11  1.908254e-11
 1.107881e-06  9.924138e-12  9.924180e-12
 1.107694e-06  1.001473e-12  1.001473e-12
 1.107880e-06 -7.919307e-12 -7.919300e-12
 1.107747e-06 -1.706530e-11 -1.706530e-11
 1.107988e-06 -2.666833e-11 -2.666838e-11
 1.107914e-06 -3.694504e-11 -3.694505e-11
 1.108218e-06 -4.811194e-11 -4.811196e-11
 1.108212e-06 -6.036029e-11 -6.036031e-11
 1.108590e-06 -7.387536e-11 -7.387535e-11
 1.108665e-06 -8.880358e-11 -8.880354e-11
 1.109133e-06 -1.052787e-10 -1.052786e-10
 1.109309e-06 -1.233749e-10 -1.233749e-10
 1.109887e-06 -1.431480e-10 -1.431480e-10
 1.110182e-06 -1.645572e-10 -1.645572e-10
 1.110890e-06 -1.875443e-10 -1.875443e-10
 1.111324e-06 -2.118893e-10 -2.118893e-10
 1.112179e-06 -2.373736e-10 -2.373736e-10
 1.112768e-06 -2.635007e-10 -2.635008e-10
 2.315907e-06 -8.817771e-10 -3.082851e-10
 2.317518e-06 -9.606484e-10 -3.354763e-10
 2.319619e-06 -1.033871e-09 -3.610514e-10
 2.321506e-06 -1.098671e-09 -3.842954e-10
 2.323849e-06 -1.148922e-09 -4.029609e-10
 2.325926e-06 -1.180746e-09 -4.159127e-10
 2.328383e-06 -1.185208e-09 -4.196203e-10
 2.330473e-06 -1.157425e-09 -4.123486e-10
 2.332814e-06 -1.085386e-09 -3.889485e-10
 2.334623e-06 -9.637011e-10 -3.463414e-10
 2.336481e-06 -7.781350e-10 -2.764866e-10
 2.337571e-06 -5.326421e-10 -1.737940e-10
 2.338414e-06 -1.859735e-10 -2.664732e-11
 2.338384e-06 -7.084645e-13  4.504273e-11
 2.338481e-06  4.293223e-11  4.464536e-11
 2.338252e-06  3.404575e-12  2.687486e-12
 2.338468e-06 -3.712972e-11 -3.984351e-11
 2.338361e-06  3.290868e-12 -4.193682e-11
 2.338391e-06  1.833268e-10  2.622687e-11
 2.337569e-06  5.164954e-10  1.665575e-10
 2.336506e-06  7.683990e-10  2.724527e-10
 2.334666e-06  9.561805e-10  3.441522e-10
 2.332870e-06  1.080048e-09  3.878360e-10
 2.330538e-06  1.153928e-09  4.121020e-10
 2.328453e-06  1.183184e-09  4.199768e-10
 2.325999e-06  1.179988e-09  4.167737e-10
 2.323923e-06  1.149134e-09  4.041717e-10
 2.321579e-06  1.099677e-09  3.857888e-10
 2.319689e-06  1.035445e-09  3.627282e-10
 2.317585e-06  9.626516e-10  3.372938e-10
 2.315970e-06  8.840527e-10  3.101803e-10
 2.314161e-06  8.035820e-10  2.827552e-10
 2.312852e-06  7.230477e-10  2.554371e-10
 2.311349e-06  6.447279e-10  2.289749e-10
 2.310337e-06  5.696673e-10  2.035966e-10
 2.309120e-06  4.990103e-10  1.796609e-10
 2.308380e-06  4.332143e-10  1.572560e-10
 2.307415e-06  3.726752e-10  1.364999e-10
 2.306908e-06  3.174155e-10  1.173761e-10
 2.306157e-06  2.673505e-10  9.985601e-11
 2.305845e-06  2.221937e-10  8.384328e-11
 2.305271e-06  1.815603e-10  6.922016e-11
 2.305118e-06  1.449524e-10  5.583113e-11
 2.304689e-06  1.118007e-10  4.350339e-11
 2.304668e-06  8.147487e-11  3.204144e-11
 2.304360e-06  5.330394e-11  2.124341e-11
 2.304452e-06  2.658811e-11  1.089058e-11
 2.304252e-06  6.097831e-13  7.674174e-13
 2.304450e-06 -2.535724e-11 -9.355294e-12
 2.304355e-06 -5.203935e-11 -1.969450e-11
 2.304660e-06 -8.015458e-11 -3.047802e-11
 2.304678e-06 -1.104042e-10 -4.191288e-11
 2.305105e-06 -1.434606e-10 -5.421357e-11
 2.305255e-06 -1.799563e-10 -6.756431e-11
 2.305825e-06 -2.204641e-10 -8.215078e-11
 2.306134e-06 -2.654851e-10 -9.811718e-11
 2.306881e-06 -3.154097e-10 -1.155956e-10
 2.307385e-06 -3.705290e-10 -1.346710e-10
 2.308345e-06 -4.309369e-10 -1.553871e-10
 2.309081e-06 -4.966166e-10 -1.777499e-10
 2.310293e-06 -5.671873e-10 -2.016582e-10
 2.311300e-06 -6.421971e-10 -2.270127e-10
 2.312798e-06 -7.205259e-10 -2.534757e-10
 2.314103e-06 -8.011328e-10 -2.808070e-10
 3.241064e-06 -1.906841e-09 -3.998328e-10
 3.243272e-06 -2.074708e-09 -4.360607e-10
 3.246017e-06 -2.230785e-09 -4.710912e-10
 3.248590e-06 -2.365284e-09 -5.026246e-10
 3.251652e-06 -2.469801e-09 -5.294398e-10
 3.254471e-06 -2.529963e-09 -5.476973e-10
 3.257678e-06 -2.534754e-09 -5.553805e-10
 3.260506e-06 -2.464801e-09 -5.465164e-10
 3.263548e-06 -2.307122e-09 -5.176102e-10
 3.265993e-06 -2.039045e-09 -4.586142e-10
 3.268385e-06 -1.655823e-09 -3.631701e-10
 3.269865e-06 -1.146598e-09 -2.187414e-10
 3.270959e-06 -5.149197e-10 -2.305053e-11
 3.271056e-06 -1.176624e-10  7.561451e-11
 3.271194e-06  1.472931e-11  6.866418e-11
 3.270968e-06  4.745895e-12  3.305869e-12
 3.271177e-06 -7.100536e-12 -6.286759e-11
 3.271029e-06  1.196204e-10 -7.258936e-11
 3.270935e-06  5.070566e-10  2.103033e-11
 3.269864e-06  1.121845e-09  2.085873e-10
 3.268416e-06  1.635862e-09  3.559967e-10
 3.266048e-06  2.023093e-09  4.539972e-10
 3.263621e-06  2.295174e-09  5.148494e-10
 3.260592e-06  2.456432e-09  5.449887e-10
 3.257770e-06  2.529494e-09  5.547852e-10
 3.254568e-06  2.527239e-09  5.477687e-10
 3.251750e-06  2.469205e-09  5.300275e-10
 3.248687e-06  2.366332e-09  5.035681e-10
 3.246110e-06  2.233124e-09  4.722961e-10
 3.243361e-06  2.077965e-09  4.374318e-10
 3.241147e-06  1.910745e-09  4.013107e-10
 3.238790e-06  1.737302e-09  3.646408e-10
 3.236982e-06  1.563828e-09  3.287142e-10
 3.235031e-06  1.393989e-09  2.939122e-10
 3.233621e-06  1.231258e-09  2.608724e-10
 3.232052e-06  1.077594e-09  2.297591e-10
 3.231003e-06  9.345727e-10  2.008162e-10
 3.229772e-06  8.028767e-10  1.740557e-10
 3.229036e-06  6.828020e-10  1.494897e-10
 3.228092e-06  5.741205e-10  1.270222e-10
 3.227616e-06  4.762916e-10  1.065295e-10
 3.226907e-06  3.884600e-10  8.783566e-11
 3.226646e-06  3.095490e-10  7.073452e-11
 3.226131e-06  2.383004e-10  5.499732e-11
 3.226045e-06  1.733243e-10  4.037135e-11
 3.225692e-06  1.131350e-10  2.659641e-11
 3.225758e-06  5.617917e-11  1.339240e-11
 3.225549e-06  8.632227e-13  4.823746e-13
 3.225755e-06 -5.442833e-11 -1.242646e-11
 3.225686e-06 -1.113095e-10 -2.561350e-11
 3.226035e-06 -1.713772e-10 -3.936933e-11
 3.226117e-06 -2.361856e-10 -5.396104e-11
 3.226628e-06 -3.072261e-10 -6.966281e-11
 3.226886e-06 -3.858920e-10 -8.671490e-11
 3.227590e-06 -4.734501e-10 -1.053599e-10
 3.228061e-06 -5.709844e-10 -1.257929e-10
 3.229001e-06 -6.793620e-10 -1.482038e-10
 3.229731e-06 -7.991367e-10 -1.727062e-10
 3.230957e-06 -9.305524e-10 -1.994105e-10
 3.231999e-06 -1.073335e-09 -2.282970e-10
 3.233562e-06 -1.226820e-09 -2.593672e-10
 3.234966e-06 -1.389467e-09 -2.923740e-10
 3.236910e-06 -1.559339e-09 -3.271660e-10
 3.238712e-06 -1.733012e-09 -3.631090e-10
 3.977390e-06 -3.140478e-09 -5.033067e-10
 3.980019e-06 -3.413253e-09 -5.510814e-10
 3.983221e-06 -3.663240e-09 -5.968439e-10
 3.986282e-06 -3.878272e-09 -6.393922e-10
 3.989858e-06 -4.039293e-09 -6.747543e-10
 3.993207e-06 -4.129895e-09 -7.008753e-10
 3.996952e-06 -4.123819e-09 -7.113366e-10
 4.000308e-06 -4.000864e-09 -7.024535e-10
 4.003851e-06 -3.728401e-09 -6.631691e-10
 4.006744e-06 -3.290560e-09 -5.852636e-10
 4.009503e-06 -2.668742e-09 -4.548630e-10
 4.011260e-06 -1.891863e-09 -2.694113e-10
 4.012538e-06 -9.941185e-10 -3.051859e-11
 4.012743e-06 -3.726977e-10  9.375855e-11
 4.012928e-06 -8.795712e-11  8.598960e-11
 4.012717e-06  5.242511e-12  3.902084e-12
 4.012911e-06  9.569753e-11 -7.956757e-11
 4.012716e-06  3.724944e-10 -9.120949e-11
 4.012514e-06  9.823712e-10  2.713471e-11
 4.011261e-06  1.863891e-09  2.576004e-10
 4.009538e-06  2.641838e-09  4.449709e-10
 4.006807e-06  3.266681e-09  5.777736e-10
 4.003936e-06  3.710175e-09  6.583513e-10
 4.000407e-06  3.988168e-09  6.995958e-10
 3.997060e-06  4.115894e-09  7.097399e-10
 3.993320e-06  4.126077e-09  7.002458e-10
 3.989973e-06  4.038812e-09  6.747842e-10
 3.986395e-06  3.880523e-09  6.399293e-10
 3.983331e-06  3.667567e-09  5.977023e-10
 3.980124e-06  3.419152e-09  5.521742e-10
 3.977488e-06  3.147449e-09  5.045215e-10
 3.974745e-06  2.865303e-09  4.570586e-10
 3.972588e-06  2.580942e-09  4.104278e-10
 3.970325e-06  2.302193e-09  3.658127e-10
 3.968639e-06  2.033988e-09  3.235109e-10
 3.966827e-06  1.780470e-09  2.840205e-10
 3.965567e-06  1.544006e-09  2.474075e-10
 3.964154e-06  1.326150e-09  2.137768e-10
 3.963262e-06  1.127375e-09  1.830360e-10
 3.962186e-06  9.474826e-10  1.550721e-10
 3.961601e-06  7.855977e-10  1.296794e-10
 3.960803e-06  6.403579e-10  1.066220e-10
 3.960468e-06  5.099930e-10  8.562020e-11
 3.959897e-06  3.924294e-10  6.637637e-11
 3.959769e-06  2.853602e-10  4.856302e-11
 3.959386e-06  1.863087e-10  3.184577e-11
 3.959434e-06  9.267903e-11  1.586419e-11
 3.959219e-06  1.799599e-12  2.613743e-13
 3.959430e-06 -8.903858e-11 -1.533980e-11
 3.959378e-06 -1.825452e-10 -3.129987e-11
 3.959757e-06 -2.813947e-10 -4.799272e-11
 3.959881e-06 -3.881874e-10 -6.576220e-11
 3.960448e-06 -5.054067e-10 -8.496043e-11
 3.960777e-06 -6.353679e-10 -1.058990e-10
 3.961571e-06 -7.801574e-10 -1.288932e-10
 3.962150e-06 -9.415597e-10 -1.542078e-10
 3.963220e-06 -1.120957e-09 -1.820978e-10
 3.964106e-06 -1.319246e-09 -2.127539e-10
 3.965512e-06 -1.536654e-09 -2.463103e-10
 3.966765e-06 -1.772740e-09 -2.828448e-10
 3.968569e-06 -2.025992e-09 -3.222776e-10
 3.970249e-06 -2.294080e-09 -3.645280e-10
 3.972504e-06 -2.572926e-09 -4.091296e-10
 3.974653e-06 -2.857637e-09 -4.557689e-10
 4.578368e-06 -4.453131e-09 -6.042335e-10
 4.581300e-06 -4.833560e-09 -6.635282e-10
 4.584831e-06 -5.181745e-09 -7.217147e-10
 4.588251e-06 -5.475594e-09 -7.749049e-10
 4.592207e-06 -5.694536e-09 -8.212950e-10
 4.595956e-06 -5.807232e-09 -8.543780e-10
 4.600105e-06 -5.787271e-09 -8.708482e-10
 4.603865e-06 -5.593763e-09 -8.590878e-10
 4.607787e-06 -5.199924e-09 -8.104368e-10
 4.611015e-06 -4.572750e-09 -7.073603e-10
 4.614045e-06 -3.723656e-09 -5.429708e-10
 4.616002e-06 -2.698322e-09 -3.171933e-10
 4.617418e-06 -1.585366e-09 -4.581638e-11
 4.617702e-06 -7.438065e-10  1.007017e-10
 4.617930e-06 -2.646078e-10  9.541610e-11
 4.617727e-06  4.245989e-12  4.162587e-12
 4.617913e-06  2.699387e-10 -8.882809e-11
 4.617676e-06  7.408853e-10 -9.862851e-11
 4.617396e-06  1.571578e-09  4.164088e-11
 4.616005e-06  2.670759e-09  3.047476e-10
 4.614083e-06  3.694077e-09  5.312432e-10
 4.611083e-06  4.544040e-09  6.973431e-10
 4.607880e-06  5.176563e-09  8.032995e-10
 4.603975e-06  5.577470e-09  8.547610e-10
 4.600226e-06  5.777496e-09  8.684036e-10
 4.596082e-06  5.802980e-09  8.531676e-10
 4.592334e-06  5.694949e-09  8.209931e-10
 4.588377e-06  5.479741e-09  7.752175e-10
 4.584953e-06  5.188859e-09  7.224674e-10
 4.581415e-06  4.842862e-09  6.645516e-10
 4.578476e-06  4.464007e-09  6.054254e-10
 4.575461e-06  4.067083e-09  5.461074e-10
 4.573061e-06  3.666557e-09  4.887154e-10
 4.570584e-06  3.272057e-09  4.337546e-10
 4.568710e-06  2.892036e-09  3.821890e-10
 4.566737e-06  2.531895e-09  3.341804e-10
 4.565338e-06  2.195698e-09  2.900206e-10
 4.563808e-06  1.885598e-09  2.496448e-10
 4.562817e-06  1.602575e-09  2.129808e-10
 4.561659e-06  1.346383e-09  1.798047e-10
 4.561006e-06  1.115883e-09  1.498495e-10
 4.560153e-06  9.091724e-10  1.227979e-10
 4.559776e-06  7.237715e-10  9.829695e-11
 4.559171e-06  5.567401e-10  7.597385e-11
 4.559019e-06  4.047919e-10  5.542375e-11
 4.558619e-06  2.643819e-10  3.623223e-11
 4.558658e-06  1.317816e-10  1.795441e-11
 4.558439e-06  3.144866e-12  1.463309e-13
 4.558653e-06 -1.254333e-10 -1.765908e-11
 4.558611e-06 -2.578583e-10 -3.591129e-11
 4.559006e-06 -3.979810e-10 -5.507218e-11
 4.559154e-06 -5.495353e-10 -7.556916e-11
 4.559753e-06 -7.160772e-10 -9.783540e-11
 4.560126e-06 -9.009055e-10 -1.222590e-10
 4.560973e-06 -1.106978e-09 -1.492316e-10
 4.561619e-06 -1.336797e-09 -1.790903e-10
 4.562771e-06 -1.592293e-09 -2.121723e-10
 4.563755e-06 -1.874637e-09 -2.487309e-10
 4.565278e-06 -2.184116e-09 -2.890095e-10
 4.566669e-06 -2.519799e-09 -3.330710e-10
 4.568634e-06 -2.879584e-09 -3.809996e-10
 4.570500e-06 -3.259478e-09 -4.325012e-10
 4.572968e-06 -3.654138e-09 -4.874324e-10
 4.575360e-06 -4.055213e-09 -5.448399e-10
 5.077437e-06 -5.768452e-09 -6.980326e-10
 5.080586e-06 -6.257178e-09 -7.703421e-10
 5.084365e-06 -6.699586e-09 -8.405029e-10
 5.088055e-06 -7.072421e-09 -9.070585e-10
 5.092309e-06 -7.341194e-09 -9.638535e-10
 5.096372e-06 -7.474762e-09 -1.008182e-09
 5.100851e-06 -7.426076e-09 -1.028639e-09
 5.104934e-06 -7.159415e-09 -1.016668e-09
 5.109162e-06 -6.628389e-09 -9.529424e-10
 5.112655e-06 -5.824242e-09 -8.250312e-10
 5.115894e-06 -4.761479e-09 -6.235675e-10
 5.118001e-06 -3.535730e-09 -3.631839e-10
 5.119518e-06 -2.249415e-09 -6.910071e-11
 5.119873e-06 -1.208699e-09  9.365651e-11
 5.120132e-06 -4.975758e-10  9.659945e-11
 5.119943e-06  1.902395e-12  3.914633e-12
 5.120115e-06  4.988238e-10 -9.041108e-11
 5.119849e-06  1.202988e-09 -9.199870e-11
 5.119499e-06  2.234949e-09  6.464731e-11
 5.118005e-06  3.510822e-09  3.508485e-10
 5.115932e-06  4.732771e-09  6.109315e-10
 5.112725e-06  5.794432e-09  8.131451e-10
 5.109260e-06  6.602418e-09  9.436108e-10
 5.105051e-06  7.140559e-09  1.010555e-09
 5.100980e-06  7.415117e-09  1.025242e-09
 5.096507e-06  7.470769e-09  1.006530e-09
 5.092447e-06  7.343000e-09  9.633148e-10
 5.088190e-06  7.079003e-09  9.073320e-10
 5.084495e-06  6.709895e-09  8.412853e-10
 5.080710e-06  6.270338e-09  7.714815e-10
 5.077553e-06  5.783616e-09  6.993513e-10
 5.074345e-06  5.273369e-09  6.284972e-10
 5.071780e-06  4.755709e-09  5.596866e-10
 5.069162e-06  4.245430e-09  4.946830e-10
 5.067169e-06  3.752505e-09  4.337875e-10
 5.065097e-06  3.285057e-09  3.776477e-10
 5.063617e-06  2.848151e-09  3.262483e-10
 5.062020e-06  2.445072e-09  2.796249e-10
 5.060977e-06  2.077099e-09  2.375328e-10
 5.059777e-06  1.744078e-09  1.996932e-10
 5.059092e-06  1.444583e-09  1.657384e-10
 5.058215e-06  1.176209e-09  1.352767e-10
 5.057819e-06  9.357605e-10  1.078759e-10
 5.057201e-06  7.194229e-10  8.308788e-11
 5.057040e-06  5.229076e-10  6.042806e-11
 5.056635e-06  3.415704e-10  3.939982e-11
 5.056670e-06  1.705135e-10  1.946991e-11
 5.056451e-06  4.675416e-12  1.045448e-13
 5.056666e-06 -1.610861e-10 -1.925756e-11
 5.056626e-06 -3.319146e-10 -3.915731e-11
 5.057026e-06 -5.128768e-10 -6.014906e-11
 5.057183e-06 -7.088788e-10 -8.274618e-11
 5.057796e-06 -9.245787e-10 -1.074664e-10
 5.058185e-06 -1.164282e-09 -1.347750e-10
 5.059057e-06 -1.431828e-09 -1.651421e-10
 5.059735e-06 -1.730440e-09 -1.989810e-10
 5.060928e-06 -2.062561e-09 -2.367068e-10
 5.061964e-06 -2.429660e-09 -2.786694e-10
 5.063553e-06 -2.831946e-09 -3.251741e-10
 5.065025e-06 -3.268197e-09 -3.764484e-10
 5.067088e-06 -3.735208e-09 -4.324901e-10
 5.069072e-06 -4.227981e-09 -4.932964e-10
 5.071681e-06 -4.738505e-09 -5.582658e-10
 5.074237e-06 -5.256879e-09 -6.270767e-10
 5.496210e-06 -7.025576e-09 -7.921666e-10
 5.499520e-06 -7.615928e-09 -8.778340e-10
 5.503484e-06 -8.150027e-09 -9.635603e-10
 5.507393e-06 -8.592178e-09 -1.043725e-09
 5.511888e-06 -8.908105e-09 -1.116451e-09
 5.516218e-06 -9.046954e-09 -1.170823e-09
 5.520973e-06 -8.966267e-09 -1.199144e-09
 5.525337e-06 -8.609467e-09 -1.181069e-09
 5.529822e-06 -7.950964e-09 -1.101483e-09
 5.533533e-06 -6.977213e-09 -9.419123e-10
 5.536938e-06 -5.748244e-09 -7.046821e-10
 5.539159e-06 -4.365265e-09 -4.144569e-10
 5.540766e-06 -2.958861e-09 -1.085802e-10
 5.541187e-06 -1.731692e-09  6.797138e-11
 5.541492e-06 -7.745067e-10  8.577088e-11
 5.541314e-06 -9.410424e-13  3.325142e-12
 5.541478e-06  7.707954e-10 -8.063556e-11
 5.541165e-06  1.723294e-09 -6.679634e-11
 5.540750e-06  2.944571e-09  1.041972e-10
 5.539165e-06  4.343775e-09  4.026263e-10
 5.536977e-06  5.722896e-09  6.919048e-10
 5.533604e-06  6.949641e-09  9.289980e-10
 5.529922e-06  7.925466e-09  1.090380e-09
 5.525459e-06  8.589973e-09  1.173118e-09
 5.521110e-06  8.954857e-09  1.194437e-09
 5.516362e-06  9.043664e-09  1.168649e-09
 5.512033e-06  8.911723e-09  1.115808e-09
 5.507536e-06  8.601420e-09  1.044050e-09
 5.503622e-06  8.163754e-09  9.645462e-10
 5.499650e-06  7.633026e-09  8.792147e-10
 5.496332e-06  7.045116e-09  7.937830e-10
 5.492993e-06  6.424562e-09  7.092367e-10
 5.490320e-06  5.794845e-09  6.286449e-10
 5.487617e-06  5.172168e-09  5.524735e-10
 5.485559e-06  4.570517e-09  4.820128e-10
 5.483438e-06  3.999271e-09  4.173310e-10
 5.481924e-06  3.465389e-09  3.586862e-10
 5.480303e-06  2.972783e-09  3.058153e-10
 5.479246e-06  2.523270e-09  2.584372e-10
 5.478038e-06  2.116712e-09  2.161342e-10
 5.477352e-06  1.751469e-09  1.784568e-10
 5.476476e-06  1.424636e-09  1.449228e-10
 5.476085e-06  1.132314e-09  1.150175e-10
 5.475473e-06  8.698142e-10  8.820772e-11
 5.475316e-06  6.318433e-10  6.391980e-11
 5.474915e-06  4.126573e-10  4.156379e-11
 5.474953e-06  2.061942e-10  2.050817e-11
 5.474735e-06  6.189254e-12  1.196265e-13
 5.474949e-06 -1.937213e-10 -2.026433e-11
 5.474906e-06 -3.999027e-10 -4.128519e-11
 5.475302e-06 -6.186267e-10 -6.359794e-11
 5.475454e-06 -8.559659e-10 -8.781310e-11
 5.476061e-06 -1.117681e-09 -1.145429e-10
 5.476447e-06 -1.409087e-09 -1.443410e-10
 5.477316e-06 -1.734903e-09 -1.777627e-10
 5.477996e-06 -2.099063e-09 -2.153041e-10
 5.479196e-06 -2.504518e-09 -2.574699e-10
 5.480246e-06 -2.952964e-09 -3.046944e-10
 5.481858e-06 -3.444599e-09 -3.574179e-10
 5.483364e-06 -3.977688e-09 -4.159127e-10
 5.485475e-06 -4.548397e-09 -4.804649e-10
 5.487524e-06 -5.149879e-09 -5.508195e-10
 5.490217e-06 -5.772842e-09 -6.269293e-10
 5.492880e-06 -6.403446e-09 -7.075281e-10
 5.849161e-06 -8.160239e-09 -8.936970e-10
 5.852585e-06 -8.845146e-09 -9.972355e-10
 5.856700e-06 -9.457744e-09 -1.099879e-09
 5.860785e-06 -9.962253e-09 -1.200490e-09
 5.865494e-06 -1.030644e-08 -1.288950e-09
 5.870057e-06 -1.044339e-08 -1.358590e-09
 5.875066e-06 -1.031010e-08 -1.388970e-09
 5.879675e-06 -9.868333e-09 -1.363731e-09
 5.884388e-06 -9.083318e-09 -1.258874e-09
 5.888281e-06 -7.983523e-09 -1.065530e-09
 5.891821e-06 -6.632049e-09 -7.944048e-10
 5.894142e-06 -5.160206e-09 -4.851212e-10
 5.895834e-06 -3.657475e-09 -1.719723e-10
 5.896342e-06 -2.277264e-09  1.679562e-11
 5.896705e-06 -1.073412e-09  5.749023e-11
 5.896555e-06 -3.674280e-12  2.456185e-12
 5.896694e-06  1.065136e-09 -5.378148e-11
 5.896324e-06  2.266530e-09 -1.639404e-11
 5.895821e-06  3.643737e-09  1.676739e-10
 5.894151e-06  5.142484e-09  4.739948e-10
 5.891861e-06  6.611391e-09  7.820500e-10
 5.888353e-06  7.960675e-09  1.052394e-09
 5.884489e-06  9.061249e-09  1.246728e-09
 5.879801e-06  9.850669e-09  1.354191e-09
 5.875208e-06  1.029964e-08  1.382790e-09
 5.870207e-06  1.044122e-08  1.355525e-09
 5.865646e-06  1.031206e-08  1.288142e-09
 5.860935e-06  9.974275e-09  1.200990e-09
 5.856844e-06  9.474823e-09  1.101153e-09
 5.852721e-06  8.866089e-09  9.990171e-10
 5.849287e-06  8.183926e-09  8.957232e-10
 5.845857e-06  7.463596e-09  7.962167e-10
 5.843123e-06  6.729521e-09  7.010387e-10
 5.840379e-06  6.003710e-09  6.125770e-10
 5.838299e-06  5.301434e-09  5.310071e-10
 5.836170e-06  4.634915e-09  4.570297e-10
 5.834660e-06  4.011968e-09  3.903511e-10
 5.833052e-06  3.437574e-09  3.307347e-10
 5.832014e-06  2.913903e-09  2.776889e-10
 5.830830e-06  2.440953e-09  2.307093e-10
 5.830169e-06  2.016845e-09  1.892335e-10
 5.829319e-06  1.638183e-09  1.526827e-10
 5.828951e-06  1.300354e-09  1.204404e-10
 5.828360e-06  9.977895e-10  9.186729e-11
 5.828221e-06  7.242022e-10  6.627627e-11
 5.827833e-06  4.727799e-10  4.296180e-11
 5.827878e-06  2.363533e-10  2.117623e-11
 5.827663e-06  7.533311e-12  1.728825e-13
 5.827874e-06 -2.211748e-10 -2.082446e-11
 5.827824e-06 -4.572681e-10 -4.256959e-11
 5.828207e-06 -7.081442e-10 -6.583263e-11
 5.828341e-06 -9.809855e-10 -9.133930e-11
 5.828928e-06 -1.282624e-09 -1.198188e-10
 5.829289e-06 -1.619373e-09 -1.519361e-10
 5.830133e-06 -1.996834e-09 -1.883550e-10
 5.830788e-06 -2.419665e-09 -2.296705e-10
 5.831964e-06 -2.891314e-09 -2.764876e-10
 5.832995e-06 -3.413723e-09 -3.293483e-10
 5.834594e-06 -3.986973e-09 -3.887879e-10
 5.836095e-06 -4.608974e-09 -4.552782e-10
 5.838214e-06 -5.274858e-09 -5.290986e-10
 5.840283e-06 -5.976906e-09 -6.105226e-10
 5.843017e-06 -6.703041e-09 -6.989120e-10
 5.845741e-06 -7.438095e-09 -7.940680e-10
 6.146309e-06 -9.103447e-09 -1.013296e-09
 6.149824e-06 -9.864105e-09 -1.137318e-09
 6.154057e-06 -1.054120e-08 -1.264948e-09
 6.158306e-06 -1.108348e-08 -1.386891e-09
 6.163203e-06 -1.144193e-08 -1.497609e-09
 6.167992e-06 -1.155090e-08 -1.576891e-09
 6.173233e-06 -1.136384e-08 -1.608522e-09
 6.178073e-06 -1.083167e-08 -1.564896e-09
 6.182982e-06 -9.958080e-09 -1.430237e-09
 6.187032e-06 -8.772485e-09 -1.202106e-09
 6.190686e-06 -7.373800e-09 -9.077915e-10
 6.193104e-06 -5.851511e-09 -5.868190e-10
 6.194901e-06 -4.294872e-09 -2.673855e-10
 6.195514e-06 -2.783993e-09 -6.425406e-11
 6.195969e-06 -1.363931e-09  8.780459e-12
 6.195850e-06 -5.748471e-12  1.475105e-12
 6.195961e-06  1.352236e-09 -6.765335e-12
 6.195502e-06  2.771791e-09  6.369110e-11
 6.194894e-06  4.282005e-09  2.628864e-10
 6.193118e-06  5.837219e-09  5.762399e-10
 6.190729e-06  7.358354e-09  8.961883e-10
 6.187104e-06  8.755673e-09  1.189402e-09
 6.183084e-06  9.941655e-09  1.417853e-09
 6.178201e-06  1.081827e-08  1.554404e-09
 6.173378e-06  1.135619e-08  1.601016e-09
 6.168148e-06  1.155075e-08  1.572731e-09
 6.163362e-06  1.144962e-08  1.496288e-09
 6.158461e-06  1.109816e-08  1.387532e-09
 6.154206e-06  1.056141e-08  1.266638e-09
 6.149963e-06  9.888506e-09  1.139592e-09
 6.146439e-06  9.130852e-09  1.015890e-09
 6.142955e-06  8.324213e-09  8.960263e-10
 6.140190e-06  7.501695e-09  7.840410e-10
 6.137441e-06  6.686476e-09  6.801108e-10
 6.135373e-06  5.898016e-09  5.857376e-10
 6.133271e-06  5.149490e-09  5.005495e-10
 6.131798e-06  4.450475e-09  4.244529e-10
 6.130235e-06  3.806660e-09  3.568707e-10
 6.129246e-06  3.220781e-09  2.972428e-10
 6.128112e-06  2.692892e-09  2.449185e-10
 6.127501e-06  2.220860e-09  1.992223e-10
 6.126697e-06  1.800739e-09  1.594452e-10
 6.126371e-06  1.427164e-09  1.248307e-10
 6.125814e-06  1.093676e-09  9.458749e-11
 6.125703e-06  7.930258e-10  6.787441e-11
 6.125335e-06  5.174215e-10  4.383734e-11
 6.125393e-06  2.587225e-10  2.158863e-11
 6.125181e-06  8.586510e-12  2.507231e-13
 6.125389e-06 -2.414217e-10 -2.107917e-11
 6.125327e-06 -4.997399e-10 -4.328058e-11
 6.125690e-06 -7.747204e-10 -6.725591e-11
 6.125797e-06 -1.074519e-09 -9.387013e-11
 6.126348e-06 -1.406951e-09 -1.240025e-10
 6.126669e-06 -1.779294e-09 -1.584712e-10
 6.127466e-06 -2.198043e-09 -1.980921e-10
 6.128071e-06 -2.668616e-09 -2.436003e-10
 6.129197e-06 -3.195015e-09 -2.957290e-10
 6.130178e-06 -3.779447e-09 -3.551373e-10
 6.131732e-06 -4.421940e-09 -4.225002e-10
 6.133196e-06 -5.119861e-09 -4.983710e-10
 6.135288e-06 -5.867625e-09 -5.833519e-10
 6.137345e-06 -6.655792e-09 -6.775499e-10
 6.140083e-06 -7.471304e-09 -7.813606e-10
 6.142836e-06 -8.294875e-09 -8.933275e-10
 6.394826e-06 -9.771271e-09 -1.157858e-09
 6.398404e-06 -1.058440e-08 -1.311314e-09
 6.402751e-06 -1.129374e-08 -1.465807e-09
 6.407145e-06 -1.185056e-08 -1.616574e-09
 6.412238e-06 -1.219026e-08 -1.743933e-09
 6.417239e-06 -1.226205e-08 -1.832461e-09
 6.422708e-06 -1.200908e-08 -1.852663e-09
 6.427754e-06 -1.141725e-08 -1.784696e-09
 6.432838e-06 -1.048958e-08 -1.616930e-09
 6.437019e-06 -9.292633e-09 -1.364198e-09
 6.440785e-06 -7.890551e-09 -1.056053e-09
 6.443316e-06 -6.375615e-09 -7.267450e-10
 6.445242e-06 -4.787785e-09 -3.991994e-10
 6.445995e-06 -3.194382e-09 -1.748146e-10
 6.446559e-06 -1.598455e-09 -5.705554e-11
 6.446488e-06 -6.845850e-12  4.833599e-13
 6.446554e-06  1.585086e-09  5.732518e-11
 6.445989e-06  3.181845e-09  1.730883e-10
 6.445242e-06  4.776324e-09  3.942651e-10
 6.443335e-06  6.364919e-09  7.163861e-10
 6.440831e-06  7.880192e-09  1.045160e-09
 6.437093e-06  9.282269e-09  1.352332e-09
 6.432940e-06  1.047990e-08  1.605009e-09
 6.427882e-06  1.140989e-08  1.774039e-09
 6.422855e-06  1.200606e-08  1.844404e-09
 6.417398e-06  1.226516e-08  1.827302e-09
 6.412401e-06  1.220044e-08  1.741896e-09
 6.407306e-06  1.186760e-08  1.617047e-09
 6.402904e-06  1.131662e-08  1.467903e-09
 6.398547e-06  1.061168e-08  1.314214e-09
 6.394957e-06  9.801680e-09  1.161114e-09
 6.391438e-06  8.934902e-09  1.017289e-09
 6.388671e-06  8.045598e-09  8.829497e-10
 6.385940e-06  7.163378e-09  7.608152e-10
 6.383912e-06  6.308790e-09  6.501877e-10
 6.381866e-06  5.497894e-09  5.512893e-10
 6.380459e-06  4.741425e-09  4.634320e-10
 6.378970e-06  4.046224e-09  3.860527e-10
 6.378057e-06  3.415410e-09  3.184043e-10
 6.376999e-06  2.849032e-09  2.597137e-10
 6.376458e-06  2.344552e-09  2.091360e-10
 6.375718e-06  1.897366e-09  1.657684e-10
 6.375448e-06  1.501287e-09  1.286357e-10
 6.374938e-06  1.148981e-09  9.672399e-11
 6.374862e-06  8.323414e-10  6.898294e-11
 6.374520e-06  5.427767e-10  4.436969e-11
 6.374594e-06  2.714207e-10  2.183068e-11
 6.374388e-06  9.267802e-12  3.413936e-13
 6.374590e-06 -2.527445e-10 -2.113782e-11
 6.374513e-06 -5.236816e-10 -4.362185e-11
 6.374851e-06 -8.125588e-10 -6.816073e-11
 6.374921e-06 -1.128258e-09 -9.578469e-11
 6.375427e-06 -1.479396e-09 -1.275630e-10
 6.375692e-06 -1.874110e-09 -1.645235e-10
 6.376425e-06 -2.319778e-09 -2.077054e-10
 6.376960e-06 -2.822636e-09 -2.580596e-10
 6.378010e-06 -3.387354e-09 -3.165168e-10
 6.378915e-06 -4.016547e-09 -3.838984e-10
 6.380395e-06 -4.710263e-09 -4.610133e-10
 6.381792e-06 -5.465483e-09 -5.485863e-10
 6.383828e-06 -6.275494e-09 -6.472332e-10
 6.385845e-06 -7.129681e-09 -7.576211e-10
 6.388563e-06 -8.012149e-09 -8.796127e-10
 6.391318e-06 -8.902485e-09 -1.013887e-09
 6.599957e-06 -1.007330e-08 -1.337966e-09
 6.603600e-06 -1.089775e-08 -1.522995e-09
 6.608049e-06 -1.160541e-08 -1.712106e-09
 6.612603e-06 -1.213615e-08 -1.885782e-09
 6.617883e-06 -1.243879e-08 -2.029673e-09
 6.623104e-06 -1.245463e-08 -2.113351e-09
 6.628780e-06 -1.215823e-08 -2.115585e-09
 6.634014e-06 -1.153409e-08 -2.018315e-09
 6.639242e-06 -1.062038e-08 -1.827371e-09
 6.643548e-06 -9.455096e-09 -1.560182e-09
 6.647436e-06 -8.111971e-09 -1.242643e-09
 6.650110e-06 -6.635493e-09 -9.063442e-10
 6.652197e-06 -5.071908e-09 -5.639650e-10
 6.653117e-06 -3.433609e-09 -3.072223e-10
 6.653811e-06 -1.740459e-09 -1.320031e-10
 6.653789e-06 -6.863426e-12 -4.374487e-13
 6.653810e-06  1.727298e-09  1.305862e-10
 6.653117e-06  3.422090e-09  3.042610e-10
 6.652205e-06  5.062645e-09  5.583870e-10
 6.650136e-06  6.628369e-09  8.959603e-10
 6.647488e-06  8.106606e-09  1.232228e-09
 6.643626e-06  9.450860e-09  1.549168e-09
 6.639346e-06  1.061754e-08  1.816357e-09
 6.634143e-06  1.153342e-08  2.008202e-09
 6.628928e-06  1.216097e-08  2.107323e-09
 6.623264e-06  1.246213e-08  2.107724e-09
 6.618049e-06  1.245204e-08  2.027006e-09
 6.612768e-06  1.215546e-08  1.885914e-09
 6.608206e-06  1.163026e-08  1.714346e-09
 6.603747e-06  1.092707e-08  1.526528e-09
 6.600090e-06  1.010576e-08  1.342028e-09
 6.596551e-06  9.212685e-09  1.165849e-09
 6.593793e-06  8.290753e-09  1.005225e-09
 6.591103e-06  7.370948e-09  8.590592e-10
 6.589138e-06  6.478796e-09  7.281614e-10
 6.587173e-06  5.632358e-09  6.115817e-10
 6.585861e-06  4.844491e-09  5.088679e-10
 6.584471e-06  4.122832e-09  4.192013e-10
 6.583659e-06  3.470767e-09  3.417307e-10
 6.582697e-06  2.888038e-09  2.754586e-10
 6.582245e-06  2.371481e-09  2.192655e-10
 6.581583e-06  1.915685e-09  1.719185e-10
 6.581379e-06  1.513631e-09  1.321076e-10
 6.580923e-06  1.157229e-09  9.850694e-11
 6.580889e-06  8.377451e-10  6.979310e-11
 6.580577e-06  5.461122e-10  4.469434e-11
 6.580668e-06  2.731215e-10  2.196870e-11
 6.580467e-06  9.527084e-12  4.352387e-13
 6.580664e-06 -2.539198e-10 -2.108554e-11
 6.580570e-06 -5.264694e-10 -4.374786e-11
 6.580878e-06 -8.173755e-10 -6.875829e-11
 6.580908e-06 -1.135860e-09 -9.733351e-11
 6.581360e-06 -1.491015e-09 -1.307727e-10
 6.581559e-06 -1.891604e-09 -1.703764e-10
 6.582214e-06 -2.345765e-09 -2.174986e-10
 6.582660e-06 -2.860571e-09 -2.734257e-10
 6.583615e-06 -3.441499e-09 -3.394145e-10
 6.584419e-06 -4.091799e-09 -4.165660e-10
 6.585799e-06 -4.811823e-09 -5.059035e-10
 6.587102e-06 -5.598304e-09 -6.082753e-10
 6.589055e-06 -6.443722e-09 -7.245271e-10
 6.591008e-06 -7.335372e-09 -8.551391e-10
 6.593685e-06 -8.255327e-09 -1.001091e-09
 6.596431e-06 -9.178244e-09 -1.161650e-09
 6.765627e-06 -9.907276e-09 -1.556308e-09
 6.769340e-06 -1.069912e-08 -1.777497e-09
 6.773915e-06 -1.135772e-08 -1.993030e-09
 6.778626e-06 -1.183516e-08 -2.189180e-09
 6.784108e-06 -1.207629e-08 -2.334289e-09