# vtk DataFile Version 2.0
Generated by ludwig extract.c
ASCII
DATASET STRUCTURED_POINTS
DIMENSIONS 64 32 32
ORIGIN 0 0 0
SPACING 1 1 1
POINT_DATA 65536
VECTORS velocity_field float
 1.113698e-06 -2.789065e-10 -2.789065e-10
 1.114476e-06 -3.046396e-10 -3.046396e-10
 1.115634e-06 -3.289009e-10 -3.289009e-10
 1.116560e-06 -3.501630e-10 -3.501630e-10
 1.117847e-06 -3.672705e-10 -3.672705e-10
 1.118876e-06 -3.778568e-10 -3.778567e-10
 1.120229e-06 -3.802801e-10 -3.802801e-10
 1.121270e-06 -3.711544e-10 -3.711544e-10
 1.122565e-06 -3.483512e-10 -3.483512e-10
 1.123462e-06 -3.072255e-10 -3.072255e-10
 1.124502e-06 -2.446525e-10 -2.446526e-10
 1.125008e-06 -1.544910e-10 -1.544911e-10
 1.125501e-06 -3.541284e-11 -3.541283e-11
 1.125409e-06  3.082441e-11  3.082442e-11
 1.125505e-06  4.148148e-11  4.148147e-11
 1.125311e-06  2.001178e-11  2.001175e-11
 1.125486e-06 -3.228889e-12 -3.228889e-12
 1.125383e-06  2.029366e-12  2.029373e-12
 1.125489e-06  5.750807e-11  5.750806e-11
 1.125054e-06  1.574199e-10  1.574199e-10
 1.124619e-06  2.574008e-10  2.574008e-10
 1.123625e-06  3.265997e-10  3.265997e-10
 1.122760e-06  3.721470e-10  3.721470e-10
 1.121482e-06  3.984046e-10  3.984046e-10
 1.120450e-06  4.100501e-10  4.100500e-10
 1.119100e-06  4.096141e-10  4.096141e-10
 1.118067e-06  4.004069e-10  4.004069e-10
 1.116771e-06  3.842908e-10  3.842909e-10
 1.115835e-06  3.636115e-10  3.636115e-10
 1.114664e-06  3.396715e-10  3.396714e-10
 1.113871e-06  3.140004e-10  3.140003e-10
 1.112856e-06  2.874470e-10  2.874470e-10
 1.112224e-06  2.609354e-10  2.609354e-10
 1.111368e-06  2.349760e-10  2.349760e-10
 1.110893e-06  2.100736e-10  2.100736e-10
 1.110188e-06  1.864934e-10  1.864934e-10
 1.109855e-06  1.644602e-10  1.644602e-10
 1.109282e-06  1.440637e-10  1.440637e-10
 1.109072e-06  1.253453e-10  1.253454e-10
 1.108612e-06  1.082716e-10  1.082716e-10
 1.108504e-06  9.276549e-11  9.276553e-11
 1.108138e-06  7.870926e-11  7.870925e-11
 1.108114e-06  6.595050e-11  6.595051e-11
 1.107824e-06  5.431598e-11  5.431597e-11
 1.107871e-06  4.360657e-11  4.360657e-11
 1.107645e-06  3.361430e-11  3.361430e-11
 1.107752e-06  2.411372e-11  2.411373e-11
 1.107584e-06  1.487960e-11  1.487959e-11
 1.107746e-06  5.674953e-12  5.674919e-12
 1.107634e-06 -3.729024e-12 -3.729038e-12
 1.107853e-06 -1.356715e-11 -1.356716e-11
 1.107800e-06 -2.405863e-11 -2.405865e-11
 1.108083e-06 -3.542242e-11 -3.542246e-11
 1.108099e-06 -4.785344e-11 -4.785346e-11
 1.108457e-06 -6.153819e-11 -6.153817e-11
 1.108556e-06 -7.662720e-11 -7.662724e-11
 1.109006e-06 -9.325478e-11 -9.325475e-11
 1.109206e-06 -1.114991e-10 -1.114991e-10
 1.109766e-06 -1.314152e-10 -1.314152e-10
 1.110087e-06 -1.529663e-10 -1.529663e-10
 1.110779e-06 -1.760919e-10 -1.760919e-10
 1.111240e-06 -2.005753e-10 -2.005753e-10
 1.112081e-06 -2.261939e-10 -2.261939e-10
 1.112698e-06 -2.524533e-10 -2.524532e-10
 2.315737e-06 -9.033929e-10 -2.975554e-10
 2.317385e-06 -9.830836e-10 -3.248822e-10
 2.319483e-06 -1.057095e-09 -3.505736e-10
 2.321411e-06 -1.122635e-09 -3.739168e-10
 2.323753e-06 -1.173531e-09 -3.926412e-10
 2.325872e-06 -1.205886e-09 -4.056147e-10
 2.328330e-06 -1.210685e-09 -4.092667e-10
 2.330463e-06 -1.183037e-09 -4.018687e-10
 2.332804e-06 -1.110801e-09 -3.782028e-10
 2.334655e-06 -9.886108e-10 -3.352075e-10
 2.336511e-06 -8.020230e-10 -2.647157e-10
 2.337638e-06 -5.550829e-10 -1.611634e-10
 2.338472e-06 -2.063322e-10 -1.273857e-11
 2.338469e-06 -1.791116e-11  6.086085e-11
 2.338544e-06  2.924867e-11  6.266784e-11
 2.338328e-06 -8.600710e-12  2.209921e-11
 2.338515e-06 -4.992853e-11 -2.057376e-11
 2.338429e-06 -1.663678e-11 -2.633242e-11
 2.338458e-06  1.514619e-10  3.332461e-11
 2.337732e-06  4.445350e-10  1.541650e-10
 2.336737e-06  7.238945e-10  2.725686e-10
 2.334967e-06  9.227065e-10  3.515679e-10
 2.333173e-06  1.057776e-09  4.005016e-10
 2.330868e-06  1.139708e-09  4.282255e-10
 2.328753e-06  1.175671e-09  4.386971e-10
 2.326299e-06  1.177153e-09  4.371458e-10
 2.324173e-06  1.149926e-09  4.257353e-10
 2.321816e-06  1.102714e-09  4.079659e-10
 2.319868e-06  1.039965e-09  3.852427e-10
 2.317746e-06  9.677611e-10  3.598058e-10
 2.316070e-06  8.892589e-10  3.325313e-10
 2.314244e-06  8.083551e-10  3.047572e-10
 2.312875e-06  7.271069e-10  2.770061e-10
 2.311357e-06  6.477960e-10  2.500180e-10
 2.310291e-06  5.716162e-10  2.240772e-10
 2.309064e-06  4.997286e-10  1.995436e-10
 2.308274e-06  4.326763e-10  1.765345e-10
 2.307305e-06  3.708721e-10  1.551737e-10
 2.306753e-06  3.143840e-10  1.354575e-10
 2.306003e-06  2.631394e-10  1.173640e-10
 2.305651e-06  2.168728e-10  1.008017e-10
 2.305083e-06  1.752042e-10  8.565830e-11
 2.304895e-06  1.376422e-10  7.177828e-11
 2.304475e-06  1.036158e-10  5.899307e-11
 2.304423e-06  7.249223e-11  4.710482e-11
 2.304129e-06  4.359410e-11  3.591384e-11
 2.304193e-06  1.621403e-11  2.519837e-11
 2.304010e-06 -1.037491e-11  1.474301e-11
 2.304182e-06 -3.690889e-11  4.315603e-12
 2.304106e-06 -6.412493e-11 -6.301986e-12
 2.304389e-06 -9.275187e-11 -1.734065e-11
 2.304429e-06 -1.235014e-10 -2.900960e-11
 2.304835e-06 -1.570564e-10 -4.152592e-11
 2.305008e-06 -1.940584e-10 -5.507700e-11
 2.305560e-06 -2.350887e-10 -6.984978e-11
 2.305895e-06 -2.806560e-10 -8.599342e-11
 2.306626e-06 -3.311567e-10 -1.036394e-10
 2.307157e-06 -3.868868e-10 -1.228782e-10
 2.308103e-06 -4.479435e-10 -1.437518e-10
 2.308869e-06 -5.143111e-10 -1.662716e-10
 2.310070e-06 -5.856085e-10 -1.903331e-10
 2.311109e-06 -6.613809e-10 -2.158420e-10
 2.312599e-06 -7.405025e-10 -2.424550e-10
 2.313939e-06 -8.219244e-10 -2.699362e-10
 3.240823e-06 -1.910684e-09 -3.899760e-10
 3.243075e-06 -2.079921e-09 -4.264183e-10
 3.245823e-06 -2.237290e-09 -4.616454e-10
 3.248443e-06 -2.372939e-09 -4.933471e-10
 3.251511e-06 -2.478414e-09 -5.202907e-10
 3.254380e-06 -2.539241e-09 -5.386096e-10
 3.257594e-06 -2.544346e-09 -5.462754e-10
 3.260473e-06 -2.474197e-09 -5.372580e-10
 3.263522e-06 -2.315776e-09 -5.080560e-10
 3.266015e-06 -2.046168e-09 -4.485031e-10
 3.268410e-06 -1.660667e-09 -3.522326e-10
 3.269933e-06 -1.148134e-09 -2.064943e-10
 3.271022e-06 -5.124466e-10 -9.050718e-12
 3.271148e-06 -1.092838e-10  9.247059e-11
 3.271264e-06  2.846162e-11  8.841120e-11
 3.271052e-06  2.116722e-11  2.504207e-11
 3.271233e-06  5.776890e-12 -4.216494e-11
 3.271109e-06  1.216690e-10 -5.722326e-11
 3.271028e-06  4.847137e-10  2.361938e-11
 3.270067e-06  1.050878e-09  1.876621e-10
 3.268701e-06  1.594479e-09  3.486905e-10
 3.266420e-06  2.004525e-09  4.572866e-10
 3.264006e-06  2.295999e-09  5.255675e-10
 3.261005e-06  2.474668e-09  5.612223e-10
 3.258151e-06  2.560908e-09  5.744652e-10
 3.254944e-06  2.569083e-09  5.699626e-10
 3.252067e-06  2.518317e-09  5.536753e-10
 3.248981e-06  2.420593e-09  5.281582e-10
 3.246334e-06  2.290295e-09  4.972196e-10
 3.243554e-06  2.136549e-09  4.624054e-10
 3.241266e-06  1.969288e-09  4.259986e-10
 3.238878e-06  1.794855e-09  3.888979e-10
 3.236999e-06  1.619540e-09  3.523691e-10
 3.235021e-06  1.447339e-09  3.169024e-10
 3.233545e-06  1.281825e-09  2.831242e-10
 3.231956e-06  1.125164e-09  2.512591e-10
 3.230848e-06  9.790125e-10  2.215470e-10
 3.229604e-06  8.441771e-10  1.940332e-10
 3.228815e-06  7.210099e-10  1.687279e-10
 3.227864e-06  6.093499e-10  1.455532e-10
 3.227343e-06  5.086888e-10  1.243834e-10
 3.226635e-06  4.182018e-10  1.050524e-10
 3.226334e-06  3.368235e-10  8.735149e-11
 3.225824e-06  2.633023e-10  7.105654e-11
 3.225705e-06  1.962443e-10  5.591178e-11
 3.225362e-06  1.341551e-10  4.165843e-11
 3.225398e-06  7.546702e-11  2.801265e-11
 3.225204e-06  1.856941e-11  1.469696e-11
 3.225383e-06 -3.817360e-11  1.414677e-12
 3.225332e-06 -9.639734e-11 -1.211561e-11
 3.225659e-06 -1.577209e-10 -2.618816e-11
 3.225762e-06 -2.237201e-10 -4.107339e-11
 3.226253e-06 -2.959078e-10 -5.704813e-11
 3.226535e-06 -3.756973e-10 -7.435739e-11
 3.227222e-06 -4.643734e-10 -9.324555e-11
 3.227720e-06 -5.630369e-10 -1.139132e-10
 3.228646e-06 -6.725685e-10 -1.365506e-10
 3.229406e-06 -7.935330e-10 -1.612775e-10
 3.230620e-06 -9.261816e-10 -1.882032e-10
 3.231696e-06 -1.070245e-09 -2.173132e-10
 3.233251e-06 -1.225058e-09 -2.486068e-10
 3.234691e-06 -1.389076e-09 -2.818408e-10
 3.236631e-06 -1.560350e-09 -3.168592e-10
 3.238473e-06 -1.735443e-09 -3.530303e-10
 3.977090e-06 -3.182886e-09 -4.944236e-10
 3.979767e-06 -3.458192e-09 -5.425018e-10
 3.982976e-06 -3.710573e-09 -5.885418e-10
 3.986088e-06 -3.927786e-09 -6.313402e-10
 3.989675e-06 -4.090647e-09 -6.668877e-10
 3.993078e-06 -4.182651e-09 -6.931263e-10
 3.996835e-06 -4.177348e-09 -7.035693e-10
 4.000247e-06 -4.054446e-09 -6.945317e-10
 4.003803e-06 -3.781037e-09 -6.548248e-10
 4.006748e-06 -3.341222e-09 -5.762223e-10
 4.009515e-06 -2.716075e-09 -4.446036e-10
 4.011318e-06 -1.934745e-09 -2.574347e-10
 4.012593e-06 -1.031216e-09 -1.599364e-11
 4.012828e-06 -4.028954e-10  1.117409e-10
 4.012993e-06 -1.118823e-10  1.076352e-10
 4.012796e-06 -1.762387e-11  2.706407e-11
 4.012963e-06  6.687250e-11 -5.854192e-11
 4.012800e-06  3.262940e-10 -7.835700e-11
 4.012620e-06  9.083628e-10  2.484409e-11
 4.011483e-06  1.745949e-09  2.312451e-10
 4.009850e-06  2.547939e-09  4.305931e-10
 4.007215e-06  3.198633e-09  5.750340e-10
 4.004366e-06  3.671814e-09  6.661375e-10
 4.000870e-06  3.975761e-09  7.150094e-10
 3.997489e-06  4.125355e-09  7.304228e-10
 3.993739e-06  4.151992e-09  7.241277e-10
 3.990327e-06  4.077277e-09  7.008556e-10
 3.986718e-06  3.927436e-09  6.671058e-10
 3.983575e-06  3.719982e-09  6.254571e-10
 3.980328e-06  3.474192e-09  5.799043e-10
 3.977610e-06  3.203097e-09  5.319538e-10
 3.974826e-06  2.919731e-09  4.838809e-10
 3.972590e-06  2.632925e-09  4.365136e-10
 3.970291e-06  2.350710e-09  3.910211e-10
 3.968531e-06  2.078417e-09  3.477997e-10
 3.966691e-06  1.820364e-09  3.073478e-10
 3.965365e-06  1.579166e-09  2.697794e-10
 3.963933e-06  1.356509e-09  2.352051e-10
 3.962984e-06  1.153009e-09  2.035535e-10
 3.961896e-06  9.685500e-10  1.747179e-10
 3.961262e-06  8.023305e-10  1.484991e-10
 3.960459e-06  6.530272e-10  1.246664e-10
 3.960083e-06  5.188957e-10  1.029392e-10
 3.959514e-06  3.978682e-10  8.302302e-11
 3.959349e-06  2.876321e-10  6.458673e-11
 3.958975e-06  1.856936e-10  4.729620e-11
 3.958992e-06  8.943152e-11  3.078614e-11
 3.958791e-06 -3.856929e-12  1.469834e-11
 3.958975e-06 -9.691622e-11 -1.349754e-12
 3.958941e-06 -1.924934e-10 -1.772162e-11
 3.959296e-06 -2.933012e-10 -3.479585e-11
 3.959441e-06 -4.019774e-10 -5.292088e-11
 3.959989e-06 -5.210413e-10 -7.245247e-11
 3.960343e-06 -6.528422e-10 -9.370779e-11
 3.961120e-06 -7.994967e-10 -1.170051e-10
 3.961728e-06 -9.628160e-10 -1.426155e-10
 3.962785e-06 -1.144204e-09 -1.707950e-10
 3.963701e-06 -1.344575e-09 -2.017414e-10
 3.965099e-06 -1.564167e-09 -2.355882e-10
 3.966386e-06 -1.802541e-09 -2.724194e-10
 3.968186e-06 -2.058184e-09 -3.121521e-10
 3.969904e-06 -2.328753e-09 -3.547106e-10
 3.972158e-06 -2.610153e-09 -3.996223e-10
 3.974350e-06 -2.897457e-09 -4.465767e-10
 4.578015e-06 -4.480575e-09 -5.962553e-10
 4.580997e-06 -4.864271e-09 -6.559359e-10
 4.584539e-06 -5.215519e-09 -7.144836e-10
 4.588014e-06 -5.512094e-09 -7.679906e-10
 4.591984e-06 -5.733298e-09 -8.146341e-10
 4.595791e-06 -5.847594e-09 -8.478573e-10
 4.599957e-06 -5.828431e-09 -8.643371e-10
 4.603776e-06 -5.634629e-09 -8.523430e-10
 4.607714e-06 -5.239310e-09 -8.031881e-10
 4.610998e-06 -4.609119e-09 -6.991027e-10
 4.614039e-06 -3.755608e-09 -5.331849e-10
 4.616043e-06 -2.724181e-09 -3.049936e-10
 4.617457e-06 -1.604330e-09 -3.054248e-11
 4.617772e-06 -7.550231e-10  1.201471e-10
 4.617978e-06 -2.705262e-10  1.182498e-10
 4.617791e-06 -1.743578e-12  2.782357e-11
 4.617954e-06  2.546334e-10 -6.934981e-11
 4.617755e-06  7.066688e-10 -8.959774e-11
 4.617503e-06  1.513507e-09  3.507993e-11
 4.616232e-06  2.580734e-09  2.754025e-10
 4.614403e-06  3.621514e-09  5.113914e-10
 4.611507e-06  4.495496e-09  6.881675e-10
 4.608332e-06  5.162257e-09  8.066814e-10
 4.604465e-06  5.597761e-09  8.685701e-10
 4.600682e-06  5.826970e-09  8.892862e-10
 4.596525e-06  5.875868e-09  8.787127e-10
 4.592708e-06  5.784925e-09  8.491677e-10
 4.588712e-06  5.581987e-09  8.050443e-10
 4.585203e-06  5.298624e-09  7.528918e-10
 4.581618e-06  4.956625e-09  6.950865e-10
 4.578589e-06  4.578502e-09  6.355067e-10
 4.575527e-06  4.179982e-09  5.755049e-10
 4.573040e-06  3.775855e-09  5.171558e-10
 4.570521e-06  3.376407e-09  4.611525e-10
 4.568567e-06  2.990389e-09  4.084390e-10
 4.566561e-06  2.623642e-09  3.592777e-10
 4.565092e-06  2.280467e-09  3.139530e-10
 4.563537e-06  1.963289e-09  2.724511e-10
 4.562485e-06  1.673254e-09  2.346962e-10
 4.561312e-06  1.410271e-09  2.004888e-10
 4.560607e-06  1.173295e-09  1.695585e-10
 4.559748e-06  9.604999e-10  1.415986e-10
 4.559326e-06  7.694411e-10  1.162515e-10
 4.558723e-06  5.971965e-10  9.314823e-11
 4.558532e-06  4.404742e-10  7.187822e-11
 4.558141e-06  2.957092e-10  5.202656e-11
 4.558147e-06  1.591391e-10  3.314195e-11
 4.557941e-06  2.687579e-11  1.477786e-11
 4.558128e-06 -1.050349e-10 -3.539440e-12
 4.558103e-06 -2.405502e-10 -2.226363e-11
 4.558475e-06 -3.835744e-10 -4.186238e-11
 4.558644e-06 -5.378945e-10 -6.276908e-11
 4.559225e-06 -7.071172e-10 -8.542145e-11
 4.559622e-06 -8.945890e-10 -1.102146e-10
 4.560453e-06 -1.103311e-09 -1.375434e-10
 4.561128e-06 -1.335823e-09 -1.677532e-10
 4.562268e-06 -1.594086e-09 -2.011821e-10
 4.563284e-06 -1.879297e-09 -2.380917e-10
 4.564800e-06 -2.191756e-09 -2.787247e-10
 4.566227e-06 -2.530540e-09 -3.231516e-10
 4.568188e-06 -2.893539e-09 -3.714525e-10
 4.570095e-06 -3.276747e-09 -4.233395e-10
 4.572565e-06 -3.674791e-09 -4.786611e-10
 4.575002e-06 -4.079277e-09 -5.364671e-10
 5.077037e-06 -5.835540e-09 -6.908389e-10
 5.080238e-06 -6.328751e-09 -7.636113e-10
 5.084030e-06 -6.775373e-09 -8.342002e-10
 5.087777e-06 -7.152005e-09 -9.011425e-10
 5.092048e-06 -7.423954e-09 -9.582272e-10
 5.096171e-06 -7.559903e-09 -1.002742e-09
 5.100669e-06 -7.512507e-09 -1.023166e-09
 5.104814e-06 -7.245888e-09 -1.010925e-09
 5.109061e-06 -6.713293e-09 -9.464550e-10
 5.112612e-06 -5.905999e-09 -8.173097e-10
 5.115864e-06 -4.838208e-09 -6.137322e-10
 5.118019e-06 -3.606132e-09 -3.504915e-10
 5.119534e-06 -2.312502e-09 -5.259473e-11
 5.119920e-06 -1.265302e-09  1.141172e-10
 5.120157e-06 -5.502897e-10  1.199049e-10
 5.119985e-06 -5.319964e-11  2.652558e-11
 5.120140e-06  4.333121e-10 -7.411373e-11
 5.119917e-06  1.121299e-09 -8.719693e-11
 5.119600e-06  2.137468e-09  5.451054e-11
 5.118229e-06  3.394892e-09  3.202236e-10
 5.116250e-06  4.630625e-09  5.873440e-10
 5.113151e-06  5.713133e-09  7.985141e-10
 5.109721e-06  6.555173e-09  9.416823e-10
 5.105553e-06  7.132655e-09  1.021511e-09
 5.101449e-06  7.443481e-09  1.045701e-09
 5.096962e-06  7.528514e-09  1.033105e-09
 5.092827e-06  7.423256e-09  9.936283e-10
 5.088527e-06  7.174919e-09  9.395053e-10
 5.084740e-06  6.816139e-09  8.744169e-10
 5.080902e-06  6.381893e-09  8.046108e-10
 5.077649e-06  5.896733e-09  7.320572e-10
 5.074388e-06  5.384723e-09  6.602945e-10
 5.071731e-06  4.862936e-09  5.903991e-10
 5.069066e-06  4.346594e-09  5.241043e-10
 5.066989e-06  3.846343e-09  4.618750e-10
 5.064880e-06  3.370670e-09  4.043517e-10
 5.063326e-06  2.925083e-09  3.515974e-10
 5.061702e-06  2.513136e-09  3.036513e-10
 5.060595e-06  2.136381e-09  2.602995e-10
 5.059378e-06  1.794834e-09  2.212689e-10
 5.058639e-06  1.487216e-09  1.861997e-10
 5.057754e-06  1.211210e-09  1.547037e-10
 5.057313e-06  9.636730e-10  1.263465e-10
 5.056695e-06  7.408117e-10  1.006809e-10
 5.056495e-06  5.383302e-10  7.721545e-11
 5.056097e-06  3.515556e-10  5.545168e-11
 5.056100e-06  1.755439e-10  3.484840e-11
 5.055893e-06  5.176286e-12  1.486766e-11
 5.056081e-06 -1.647555e-10 -5.059168e-12
 5.056058e-06 -3.394648e-10 -2.547907e-11
 5.056436e-06 -5.240903e-10 -4.695306e-11
 5.056614e-06 -7.236092e-10 -7.000229e-11
 5.057207e-06 -9.427472e-10 -9.515004e-11
 5.057622e-06 -1.185873e-09 -1.228701e-10
 5.058478e-06 -1.456882e-09 -1.536363e-10
 5.059186e-06 -1.759046e-09 -1.878708e-10
 5.060368e-06 -2.094847e-09 -2.259906e-10
 5.061437e-06 -2.465782e-09 -2.683543e-10
 5.063019e-06 -2.872081e-09 -3.152672e-10
 5.064528e-06 -3.312523e-09 -3.669649e-10
 5.066589e-06 -3.783896e-09 -4.234414e-10
 5.068615e-06 -4.281178e-09 -4.846999e-10
 5.071227e-06 -4.796314e-09 -5.501304e-10
 5.073830e-06 -5.319345e-09 -6.194140e-10
 5.495767e-06 -7.077751e-09 -7.856632e-10
 5.499130e-06 -7.673326e-09 -8.718636e-10
 5.503109e-06 -8.212308e-09 -9.580909e-10
 5.507076e-06 -8.658808e-09 -1.038693e-09
 5.511589e-06 -8.978355e-09 -1.111770e-09
 5.515982e-06 -9.119813e-09 -1.166318e-09
 5.520758e-06 -9.040525e-09 -1.194606e-09
 5.525186e-06 -8.683553e-09 -1.176082e-09
 5.529691e-06 -8.023250e-09 -1.095593e-09
 5.533462e-06 -7.045748e-09 -9.343001e-10
 5.536880e-06 -5.811444e-09 -6.945981e-10
 5.539150e-06 -4.421646e-09 -4.008398e-10
 5.540754e-06 -3.008397e-09 -9.122418e-11
 5.541204e-06 -1.775565e-09  8.885783e-11
 5.541489e-06 -8.160916e-10  1.082161e-10
 5.541330e-06 -4.569895e-11  2.303670e-11
 5.541482e-06  7.179893e-10 -6.852168e-11
 5.541220e-06  1.660915e-09 -6.633669e-11
 5.540842e-06  2.876391e-09  9.129540e-11
 5.539380e-06  4.270584e-09  3.714189e-10
 5.537284e-06  5.663088e-09  6.663430e-10
 5.534022e-06  6.908731e-09  9.103436e-10
 5.530380e-06  7.915748e-09  1.083512e-09
 5.525963e-06  8.619852e-09  1.179976e-09
 5.521583e-06  9.025112e-09  1.213425e-09
 5.516820e-06  9.148618e-09  1.195835e-09
 5.512413e-06  9.043424e-09  1.147868e-09
 5.507868e-06  8.752341e-09  1.078783e-09
 5.503856e-06  8.326820e-09  1.000255e-09
 5.499825e-06  7.802697e-09  9.151218e-10
 5.496406e-06  7.216384e-09  8.290447e-10
 5.493008e-06  6.593702e-09  7.435275e-10
 5.490238e-06  5.958685e-09  6.615693e-10
 5.487485e-06  5.328498e-09  5.839306e-10
 5.485339e-06  4.717625e-09  5.118656e-10
 5.483178e-06  4.136115e-09  4.455968e-10
 5.481587e-06  3.591325e-09  3.853665e-10
 5.479938e-06  3.087598e-09  3.309850e-10
 5.478815e-06  2.627031e-09  2.821632e-10
 5.477590e-06  2.209744e-09  2.385139e-10
 5.476848e-06  1.834260e-09  1.995810e-10
 5.475964e-06  1.497800e-09  1.648926e-10
 5.475527e-06  1.196531e-09  1.339258e-10
 5.474914e-06  9.257956e-10  1.061485e-10
 5.474719e-06  6.802934e-10  8.097779e-11
 5.474325e-06  4.542468e-10  5.781991e-11
 5.474331e-06  2.415386e-10  3.603407e-11
 5.474125e-06  3.583452e-11  1.498176e-11
 5.474312e-06 -1.693095e-10 -6.008822e-12
 5.474287e-06 -3.803453e-10 -2.758646e-11
 5.474660e-06 -6.036336e-10 -5.041487e-11
 5.474833e-06 -8.453354e-10 -7.511389e-11
 5.475421e-06 -1.111296e-09 -1.023028e-10
 5.475832e-06 -1.406908e-09 -1.325449e-10
 5.476687e-06 -1.736958e-09 -1.664002e-10
 5.477396e-06 -2.105440e-09 -2.043744e-10
 5.478585e-06 -2.515351e-09 -2.469743e-10
 5.479669e-06 -2.968423e-09 -2.946433e-10
 5.481274e-06 -3.464873e-09 -3.478217e-10
 5.482818e-06 -4.002974e-09 -4.067913e-10
 5.484928e-06 -4.578877e-09 -4.718344e-10
 5.487019e-06 -5.185708e-09 -5.427035e-10
 5.489716e-06 -5.814122e-09 -6.193409e-10
 5.492428e-06 -6.450207e-09 -7.004826e-10
 5.848676e-06 -8.251327e-09 -8.878455e-10
 5.852155e-06 -8.942629e-09 -9.919921e-10
 5.856286e-06 -9.561224e-09 -1.095200e-09
 5.860431e-06 -1.007113e-08 -1.196321e-09
 5.865159e-06 -1.041985e-08 -1.285148e-09
 5.869786e-06 -1.056023e-08 -1.354989e-09
 5.874818e-06 -1.042892e-08 -1.385207e-09
 5.879493e-06 -9.987556e-09 -1.359410e-09
 5.884226e-06 -9.201025e-09 -1.253248e-09
 5.888180e-06 -8.097970e-09 -1.057901e-09
 5.891732e-06 -6.741440e-09 -7.837124e-10
 5.894100e-06 -5.263705e-09 -4.709680e-10
 5.895788e-06 -3.754998e-09 -1.543420e-10
 5.896324e-06 -2.370491e-09  3.693024e-11
 5.896669e-06 -1.165532e-09  7.723272e-11
 5.896544e-06 -9.782006e-11  1.795073e-11
 5.896677e-06  9.677060e-10 -4.655611e-11
 5.896365e-06  2.167940e-09 -1.981505e-11
 5.895903e-06  3.549289e-09  1.524801e-10
 5.894354e-06  5.053428e-09  4.425105e-10
 5.892154e-06  6.539137e-09  7.557278e-10
 5.888757e-06  7.907245e-09  1.031707e-09
 5.884936e-06  9.036014e-09  1.236104e-09
 5.880299e-06  9.862199e-09  1.357017e-09
 5.875679e-06  1.035176e-08  1.399049e-09
 5.870663e-06  1.053135e-08  1.382585e-09
 5.866021e-06  1.043287e-08  1.321835e-09
 5.861257e-06  1.011732e-08  1.238197e-09
 5.857062e-06  9.632421e-09  1.139896e-09
 5.852875e-06  9.031321e-09  1.037808e-09
 5.849334e-06  8.351401e-09  9.339207e-10
 5.845842e-06  7.628639e-09  8.331224e-10
 5.843006e-06  6.888706e-09  7.364233e-10
 5.840208e-06  6.154261e-09  6.461588e-10
 5.838037e-06  5.441493e-09  5.627567e-10
 5.835867e-06  4.763164e-09  4.868985e-10
 5.834278e-06  4.127716e-09  4.184076e-10
 5.832640e-06  3.540533e-09  3.570457e-10
 5.831536e-06  3.004176e-09  3.023638e-10
 5.830333e-06  2.518910e-09  2.538605e-10
 5.829617e-06  2.083070e-09  2.109807e-10
 5.828758e-06  1.693398e-09  1.731462e-10
 5.828345e-06  1.345359e-09  1.397339e-10
 5.827754e-06  1.033419e-09  1.101012e-10
 5.827576e-06  7.512765e-10  8.354979e-11
 5.827196e-06  4.920766e-10  5.936925e-11
 5.827209e-06  2.485819e-10  3.680101e-11
 5.827006e-06  1.331742e-11  1.509169e-11
 5.827191e-06 -2.213110e-10 -6.546496e-12
 5.827158e-06 -4.629073e-10 -2.887693e-11
 5.827519e-06 -7.189788e-10 -5.268086e-11
 5.827675e-06 -9.968155e-10 -7.869517e-11
 5.828243e-06 -1.303351e-09 -1.076580e-10
 5.828630e-06 -1.644992e-09 -1.402455e-10
 5.829459e-06 -2.027420e-09 -1.771268e-10
 5.830143e-06 -2.455362e-09 -2.189074e-10
 5.831309e-06 -2.932318e-09 -2.661944e-10
 5.832373e-06 -3.460268e-09 -3.195394e-10
 5.833966e-06 -4.039312e-09 -3.794774e-10
 5.835505e-06 -4.667364e-09 -4.464900e-10
 5.837623e-06 -5.339538e-09 -5.208540e-10
 5.839736e-06 -6.048078e-09 -6.028506e-10
 5.842474e-06 -6.780843e-09 -6.918331e-10
 5.845247e-06 -7.522575e-09 -7.876022e-10
 6.145786e-06 -9.178119e-09 -1.008104e-09
 6.149356e-06 -9.945822e-09 -1.132814e-09
 6.153606e-06 -1.062951e-08 -1.261093e-09
 6.157915e-06 -1.117768e-08 -1.383592e-09
 6.162834e-06 -1.154108e-08 -1.494723e-09
 6.167688e-06 -1.165374e-08 -1.574125e-09
 6.172952e-06 -1.146893e-08 -1.605527e-09
 6.177858e-06 -1.093722e-08 -1.561022e-09
 6.182788e-06 -1.006234e-08 -1.424855e-09
 6.186898e-06 -8.873527e-09 -1.194235e-09
 6.190563e-06 -7.470243e-09 -8.969687e-10
 6.193027e-06 -5.942414e-09 -5.727584e-10
 6.194818e-06 -4.380245e-09 -2.506638e-10
 6.195461e-06 -2.865477e-09 -4.674580e-11
 6.195901e-06 -1.443232e-09  2.433505e-11
 6.195813e-06 -8.352987e-11  1.166475e-11
 6.195926e-06  1.278031e-09 -4.402440e-12
 6.195531e-06  2.705406e-09  5.668737e-11
 6.194967e-06  4.228557e-09  2.459211e-10
 6.193309e-06  5.798750e-09  5.445491e-10
 6.191008e-06  7.340537e-09  8.700950e-10
 6.187491e-06  8.758930e-09  1.168302e-09
 6.183514e-06  9.971063e-09  1.405496e-09
 6.178685e-06  1.088054e-08  1.554175e-09
 6.173840e-06  1.145593e-08  1.614456e-09
 6.168597e-06  1.168808e-08  1.598519e-09
 6.163728e-06  1.161963e-08  1.531166e-09
 6.158771e-06  1.129268e-08  1.427385e-09
 6.154407e-06  1.077198e-08  1.308587e-09
 6.150094e-06  1.010762e-08  1.181923e-09
 6.146457e-06  9.352015e-09  1.057321e-09
 6.142905e-06  8.542438e-09  9.360749e-10
 6.140035e-06  7.712832e-09  8.221549e-10
 6.137229e-06  6.887573e-09  7.161763e-10
 6.135068e-06  6.086825e-09  6.195847e-10
 6.132922e-06  5.324618e-09  5.322359e-10
 6.131369e-06  4.611080e-09  4.540106e-10
 6.129776e-06  3.952466e-09  3.844326e-10
 6.128720e-06  3.351902e-09  3.229288e-10
 6.127569e-06  2.809783e-09  2.688849e-10
 6.126902e-06  2.324206e-09  2.216117e-10
 6.126091e-06  1.891392e-09  1.804081e-10
 6.125719e-06  1.506062e-09  1.445019e-10
 6.125164e-06  1.161795e-09  1.130981e-10
 6.125015e-06  8.513262e-10  8.534180e-11
 6.124655e-06  5.668158e-10  6.037368e-11
 6.124682e-06  3.000431e-10  3.729265e-11
 6.124484e-06  4.256441e-11  1.521168e-11
 6.124665e-06 -2.141730e-10 -6.786925e-12
 6.124621e-06 -4.787323e-10 -2.959540e-11
 6.124962e-06 -7.595937e-10 -5.413009e-11
 6.125090e-06 -1.065037e-09 -8.126975e-11
 6.125623e-06 -1.402995e-09 -1.119045e-10
 6.125969e-06 -1.780850e-09 -1.468656e-10
 6.126752e-06 -2.205193e-09 -1.869748e-10
 6.127387e-06 -2.681514e-09 -2.329792e-10
 6.128502e-06 -3.213876e-09 -2.856142e-10
 6.129517e-06 -3.804528e-09 -3.455486e-10
 6.131064e-06 -4.453515e-09 -4.134564e-10
 6.132566e-06 -5.158206e-09 -4.899006e-10
 6.134657e-06 -5.912990e-09 -5.754795e-10
 6.136758e-06 -6.708387e-09 -6.703108e-10
 6.139500e-06 -7.531265e-09 -7.747814e-10
 6.142303e-06 -8.362241e-09 -8.874390e-10
 6.394266e-06 -9.882556e-09 -1.153381e-09
 6.397901e-06 -1.070375e-08 -1.307625e-09
 6.402264e-06 -1.142067e-08 -1.462841e-09
 6.406720e-06 -1.198432e-08 -1.614229e-09
 6.411834e-06 -1.232984e-08 -1.741964e-09
 6.416901e-06 -1.240618e-08 -1.830580e-09
 6.422394e-06 -1.215620e-08 -1.850309e-09
 6.427506e-06 -1.156568e-08 -1.781337e-09
 6.432610e-06 -1.063738e-08 -1.611694e-09
 6.436849e-06 -9.438081e-09 -1.356656e-09
 6.440625e-06 -8.032062e-09 -1.045766e-09
 6.443200e-06 -6.512149e-09 -7.139483e-10
 6.445120e-06 -4.919210e-09 -3.852265e-10
 6.445906e-06 -3.321107e-09 -1.614747e-10
 6.446461e-06 -1.720602e-09 -4.694724e-11
 6.446428e-06 -1.224657e-10  5.192291e-12
 6.446504e-06  1.479806e-09  5.497801e-11
 6.446007e-06  3.091966e-09  1.630269e-10
 6.445306e-06  4.706867e-09  3.758011e-10
 6.443518e-06  6.316775e-09  6.847318e-10
 6.441097e-06  7.857789e-09  1.019900e-09
 6.437463e-06  9.283435e-09  1.332300e-09
 6.433352e-06  1.050691e-08  1.592844e-09
 6.428349e-06  1.146624e-08  1.772811e-09
 6.423302e-06  1.209538e-08  1.855922e-09
 6.417834e-06  1.238875e-08  1.851739e-09
 6.412756e-06  1.235579e-08  1.777035e-09
 6.407601e-06  1.204860e-08  1.659380e-09
 6.403086e-06  1.151503e-08  1.513516e-09
 6.398654e-06  1.081948e-08  1.360494e-09
 6.394945e-06  1.001195e-08  1.206613e-09
 6.391353e-06  9.141889e-09  1.060946e-09
 6.388477e-06  8.244967e-09  9.244366e-10
 6.385686e-06  7.351716e-09  7.997507e-10
 6.383563e-06  6.483786e-09  6.865640e-10
 6.381471e-06  5.657955e-09  5.850693e-10
 6.379984e-06  4.885720e-09  4.947491e-10
 6.378465e-06  4.174450e-09  4.150375e-10
 6.377485e-06  3.527751e-09  3.452417e-10
 6.376410e-06  2.946016e-09  2.845863e-10
 6.375815e-06  2.426972e-09  2.322297e-10
 6.375069e-06  1.966183e-09  1.872616e-10
 6.374754e-06  1.557557e-09  1.486910e-10
 6.374246e-06  1.193793e-09  1.154995e-10
 6.374135e-06  8.667607e-10  8.662225e-11
 6.373802e-06  5.678071e-10  6.100904e-11
 6.373845e-06  2.879663e-10  3.758834e-11
 6.373653e-06  1.810882e-11  1.532181e-11
 6.373830e-06 -2.509674e-10 -6.849750e-12
 6.373771e-06 -5.284733e-10 -2.995807e-11
 6.374087e-06 -8.235699e-10 -5.507060e-11
 6.374180e-06 -1.145279e-09 -8.323402e-11
 6.374667e-06 -1.502348e-09 -1.155306e-10
 6.374957e-06 -1.903032e-09 -1.530030e-10
 6.375676e-06 -2.354811e-09 -1.966985e-10
 6.376239e-06 -2.864007e-09 -2.475810e-10
 6.377279e-06 -3.435353e-09 -3.065836e-10
 6.378217e-06 -4.071508e-09 -3.745384e-10
 6.379691e-06 -4.772536e-09 -4.522521e-10
 6.381126e-06 -5.535412e-09 -5.404582e-10
 6.383161e-06 -6.353389e-09 -6.397675e-10
 6.385221e-06 -7.215793e-09 -7.508554e-10
 6.387944e-06 -8.106647e-09 -8.735792e-10
 6.390748e-06 -9.005422e-09 -1.008622e-09
 6.599364e-06 -1.016500e-08 -1.334293e-09
 6.603063e-06 -1.099795e-08 -1.520204e-09
 6.607529e-06 -1.171358e-08 -1.710127e-09
 6.612145e-06 -1.225151e-08 -1.884439e-09
 6.617447e-06 -1.256032e-08 -2.028713e-09
 6.622733e-06 -1.258100e-08 -2.112319e-09
 6.628433e-06 -1.228791e-08 -2.114030e-09
 6.633733e-06 -1.166525e-08 -2.015520e-09
 6.638979e-06 -1.075111e-08 -1.822967e-09
 6.643342e-06 -9.583436e-09 -1.553682e-09
 6.647237e-06 -8.236121e-09 -1.234077e-09
 6.649955e-06 -6.754282e-09 -8.965582e-10
 6.652039e-06 -5.184198e-09 -5.542488e-10
 6.652996e-06 -3.538809e-09 -2.993861e-10
 6.653687e-06 -1.836733e-09 -1.276729e-10
 6.653713e-06 -9.110740e-11 -1.145056e-12
 6.653749e-06  1.659683e-09  1.240666e-10
 6.653130e-06  3.376165e-09  2.914516e-10
 6.652265e-06  5.042399e-09  5.388104e-10
 6.650313e-06  6.635840e-09  8.645588e-10
 6.647744e-06  8.142467e-09  1.208414e-09
 6.643983e-06  9.513231e-09  1.531119e-09
 6.639740e-06  1.070579e-08  1.806156e-09
 6.634590e-06  1.164856e-08  2.008025e-09
 6.629356e-06  1.230437e-08  2.118921e-09
 6.623684e-06  1.263464e-08  2.131638e-09
 6.618390e-06  1.265246e-08  2.062356e-09
 6.613048e-06  1.237971e-08  1.929992e-09
 6.608369e-06  1.187186e-08  1.763624e-09
 6.603828e-06  1.117825e-08  1.577406e-09
 6.600048e-06  1.035930e-08  1.392142e-09
 6.596431e-06  9.462499e-09  1.214040e-09
 6.593560e-06  8.531975e-09  1.050642e-09
 6.590806e-06  7.600043e-09  9.015428e-10
 6.588744e-06  6.693171e-09  7.674994e-10
 6.586732e-06  5.830414e-09  6.478922e-10
 6.585339e-06  5.025320e-09  5.422446e-10
 6.583920e-06  4.286190e-09  4.498729e-10
 6.583042e-06  3.616887e-09  3.699058e-10
 6.582064e-06  3.017555e-09  3.013828e-10
 6.581559e-06  2.485295e-09  2.431561e-10
 6.580893e-06  2.014883e-09  1.939926e-10
 6.580646e-06  1.599398e-09  1.525659e-10
 6.580194e-06  1.230780e-09  1.175478e-10
 6.580126e-06  9.002664e-10  8.759676e-11
 6.579824e-06  5.987039e-10  6.142766e-11
 6.579886e-06  3.167638e-10  3.777329e-11
 6.579701e-06  4.505640e-11  1.543227e-11
 6.579873e-06 -2.258231e-10 -6.800633e-12
 6.579797e-06 -5.052840e-10 -3.010067e-11
 6.580084e-06 -8.027361e-10 -5.569539e-11
 6.580136e-06 -1.127550e-09 -8.482100e-11
 6.580569e-06 -1.488955e-09 -1.187918e-10
 6.580794e-06 -1.895843e-09 -1.589260e-10
 6.581434e-06 -2.356459e-09 -2.065871e-10
 6.581909e-06 -2.877970e-09 -2.630766e-10
 6.582852e-06 -3.465925e-09 -3.296552e-10
 6.583689e-06 -4.123619e-09 -4.074357e-10
 6.585062e-06 -4.851425e-09 -4.974382e-10
 6.586403e-06 -5.646065e-09 -6.005198e-10
 6.588355e-06 -6.499978e-09 -7.175165e-10
 6.590351e-06 -7.400384e-09 -8.489161e-10
 6.593032e-06 -8.329256e-09 -9.956845e-10
 6.595827e-06 -9.261120e-09 -1.157101e-09
 6.765002e-06 -1.003153e-08 -1.553585e-09
 6.768771e-06 -1.083264e-08 -1.775706e-09
 6.773363e-06 -1.149995e-08 -1.992085e-09
 6.778137e-06 -1.198533e-08 -2.188922e-09
 6.783640e-06 -1.223333e-08 -2.334357e-09